 running on   20 total cores
 distrk:  each k-point on   20 cores,    1 groups
 distr:  one band on    1 cores,   20 groups
 using from now: INCAR     
 vasp.6.1.1 19Jun20 (build Jan 13 2022 18:23:11) complex                        
  
 POSCAR found type information on POSCAR O Ti
 POSCAR found :  2 types and      81 ions
 scaLAPACK will be used
 -----------------------------------------------------------------------------
|                                                                             |
|           W    W    AA    RRRRR   N    N  II  N    N   GGGG   !!!           |
|           W    W   A  A   R    R  NN   N  II  NN   N  G    G  !!!           |
|           W    W  A    A  R    R  N N  N  II  N N  N  G       !!!           |
|           W WW W  AAAAAA  RRRRR   N  N N  II  N  N N  G  GGG   !            |
|           WW  WW  A    A  R   R   N   NN  II  N   NN  G    G                |
|           W    W  A    A  R    R  N    N  II  N    N   GGGG   !!!           |
|                                                                             |
|     For optimal performance we recommend to set                             |
|       NCORE = 4 - approx SQRT(number of cores).                             |
|     NCORE specifies how many cores store one orbital (NPAR=cpu/NCORE).      |
|     This setting can greatly improve the performance of VASP for DFT.       |
|     The default, NCORE=1 might be grossly inefficient on modern             |
|     multi-core architectures or massively parallel machines. Do your        |
|     own testing!!!!                                                         |
|     Unfortunately you need to use the default for GW and RPA                |
|     calculations (for HF NCORE is supported but not extensively tested      |
|     yet).                                                                   |
|                                                                             |
 -----------------------------------------------------------------------------

 -----------------------------------------------------------------------------
|                                                                             |
|               ----> ADVICE to this user running VASP <----                  |
|                                                                             |
|     You have a (more or less) 'large supercell' and for larger cells it     |
|     might be more efficient to use real-space projection operators.         |
|     Therefore, try LREAL= Auto in the INCAR file.                           |
|     Mind: For very accurate calculation, you might also keep the            |
|     reciprocal projection scheme (i.e. LREAL=.FALSE.).                      |
|                                                                             |
 -----------------------------------------------------------------------------

 LDA part: xc-table for Pade appr. of Perdew
 POSCAR, INCAR and KPOINTS ok, starting setup
 FFT: planning ...
 WAVECAR not read
 WARNING: random wavefunctions but no delay for mixing, default for NELMDL
 entering main loop
       N       E                     dE             d eps       ncg     rms          rms(c)
DAV:   1     0.136733256902E+05    0.13673E+05   -0.40789E+05  9380   0.180E+03
DAV:   2     0.145233479746E+04   -0.12221E+05   -0.11984E+05  9280   0.612E+02
DAV:   3    -0.325682240521E+03   -0.17780E+04   -0.16864E+04 13820   0.206E+02
DAV:   4    -0.686327548459E+03   -0.36065E+03   -0.35399E+03 13700   0.721E+01
DAV:   5    -0.720711142545E+03   -0.34384E+02   -0.34139E+02 14700   0.205E+01    0.760E+01
DAV:   6    -0.638289068354E+03    0.82422E+02   -0.34628E+02 11960   0.437E+01    0.237E+01
DAV:   7    -0.106410803946E+04   -0.42582E+03   -0.12103E+03 13940   0.738E+01    0.101E+02
DAV:   8    -0.788374708475E+03    0.27573E+03   -0.12967E+03 14340   0.384E+01    0.919E+01
DAV:   9    -0.612139848039E+03    0.17623E+03   -0.52830E+02 13960   0.268E+01    0.152E+01
DAV:  10    -0.636767070878E+03   -0.24627E+02   -0.22962E+02 13300   0.191E+01    0.180E+01
DAV:  11    -0.637590138547E+03   -0.82307E+00   -0.39158E+01 13840   0.142E+01    0.168E+01
DAV:  12    -0.635271582057E+03    0.23186E+01   -0.16753E+01 13860   0.914E+00    0.118E+01
DAV:  13    -0.636992289286E+03   -0.17207E+01   -0.96590E+00 13120   0.112E+01    0.122E+01
DAV:  14    -0.636872615258E+03    0.11967E+00   -0.16151E+01 13520   0.127E+01    0.967E+00
DAV:  15    -0.635996342099E+03    0.87627E+00   -0.10575E+01 13740   0.105E+01    0.749E+00
DAV:  16    -0.635111233158E+03    0.88511E+00   -0.45293E+00 13100   0.662E+00    0.348E+00
DAV:  17    -0.635011548745E+03    0.99684E-01   -0.11847E+00 13260   0.317E+00    0.212E+00
DAV:  18    -0.635024787349E+03   -0.13239E-01   -0.22793E-01 12160   0.122E+00    0.180E+00
DAV:  19    -0.635025997346E+03   -0.12100E-02   -0.31761E-02 12380   0.636E-01    0.162E+00
DAV:  20    -0.635016806259E+03    0.91911E-02   -0.52681E-02 12700   0.902E-01    0.107E+00
DAV:  21    -0.635010541658E+03    0.62646E-02   -0.57558E-02 12340   0.891E-01    0.752E-01
DAV:  22    -0.635005977116E+03    0.45645E-02   -0.24072E-02 12060   0.544E-01    0.419E-01
DAV:  23    -0.635005825530E+03    0.15159E-03   -0.71436E-03 12440   0.267E-01    0.368E-01
DAV:  24    -0.635004815286E+03    0.10102E-02   -0.34940E-03 12560   0.213E-01    0.229E-01
DAV:  25    -0.635004583325E+03    0.23196E-03   -0.24594E-03 12300   0.175E-01    0.161E-01
DAV:  26    -0.635004282552E+03    0.30077E-03   -0.15237E-03 12440   0.139E-01    0.647E-02
DAV:  27    -0.635004295312E+03   -0.12759E-04   -0.63791E-04 12420   0.808E-02    0.513E-02
DAV:  28    -0.635004273741E+03    0.21571E-04   -0.24157E-04 12600   0.563E-02    0.281E-02
DAV:  29    -0.635004280975E+03   -0.72340E-05   -0.84915E-05  9900   0.348E-02
   1 F= -.63500428E+03 E0= -.63495478E+03  d E =-.989953E-01
 writing wavefunctions
