unknown system                          
           1
    40.636969    0.000000    0.000000
     0.000000    5.110600    0.000000
     0.000000    0.000000    7.531000
   O    Ti
     1    80
Direct configuration=     1
   0.49811935  0.54542570  0.29840714
   0.38185368  0.34173679  0.87128424
   0.38046428  0.64483854  0.36681395
   0.45764881  0.30026997  0.21027115
   0.45964962  0.67569299  0.73935487
   0.34536843  0.77329876  0.04173635
   0.34520656  0.21500656  0.54456615
   0.45731722  0.80655178  0.38841423
   0.45830194  0.17560489  0.86527249
   0.31609091  0.34114622  0.21155746
   0.31676855  0.65083981  0.71177015
   0.42279822  0.26090231  0.54813273
   0.42194471  0.74656060  0.05141558
   0.19254363  0.83203380  0.99765173
   0.19262730  0.16483183  0.49751868
   0.30317865  0.83093482  0.35809655
   0.30327793  0.16121064  0.85898308
   0.38764793  0.84311037  0.72105162
   0.38586040  0.14570879  0.22763556
   0.17788461  0.34473298  0.14438479
   0.17811016  0.65156632  0.64550982
   0.26922118  0.31274120  0.52535158
   0.26905093  0.68447764  0.02373230
   0.03876901  0.81537496  0.97727515
   0.03880610  0.18060388  0.47699567
   0.15021799  0.78292694  0.31142562
   0.15014242  0.21360326  0.81125322
   0.24741733  0.84841645  0.67813613
   0.24686908  0.14618010  0.18143229
   0.03595875  0.31748388  0.12556141
   0.03599146  0.67848041  0.62570764
   0.11530196  0.34428869  0.48415365
   0.11522643  0.65213353  0.98387815
   0.22644059  0.31479660  0.83339227
   0.22635859  0.67725737  0.33256342
   0.10760089  0.84454180  0.62901944
   0.10756288  0.15160276  0.12914101
   0.07309124  0.25939200  0.80380534
   0.07313118  0.73643663  0.30390335
   0.61577758  0.64497971  0.36693399
   0.61439216  0.34190470  0.87136951
   0.53663841  0.67578948  0.73937049
   0.53862916  0.30049224  0.21034615
   0.65104839  0.21540436  0.54472531
   0.65088901  0.77324121  0.04188759
   0.53793402  0.17574276  0.86533678
   0.53892217  0.80663737  0.38842206
   0.67953918  0.65108567  0.71200050
   0.68021090  0.34128174  0.21182426
   0.57431642  0.74677388  0.05148607
   0.57345924  0.26088466  0.54819350
   0.80362804  0.16507983  0.49779203
   0.80371099  0.83213259  0.99793082
   0.69297096  0.16133619  0.85921116
   0.69306724  0.83120197  0.35832326
   0.61042978  0.14587952  0.22772940
   0.60864506  0.84324370  0.72117565
   0.81820777  0.65170551  0.64581250
   0.81842814  0.34494482  0.14469927
   0.72720535  0.68487564  0.02403640
   0.72703891  0.31266074  0.52563206
   0.95744162  0.18080783  0.47701489
   0.95746783  0.81551557  0.97734049
   0.84612421  0.21350936  0.81145949
   0.84605087  0.78335195  0.31163240
   0.74944463  0.14637662  0.18181042
   0.74890290  0.84858894  0.67854587
   0.96033246  0.67876227  0.62579441
   0.96035460  0.31755270  0.12560787
   0.88101817  0.65235389  0.98402080
   0.88094510  0.34440927  0.48429727
   0.76990377  0.67726520  0.33288312
   0.76982423  0.31519443  0.83369599
   0.88874660  0.15177562  0.12930014
   0.88871317  0.84471578  0.62917223
   0.92314416  0.73639697  0.30403258
   0.92318244  0.25976108  0.80391236
   0.99813221  0.77932132  0.29304030
   0.99813265  0.21513419  0.79235358
   0.49812867  0.30073872  0.52850313
   0.49813096  0.78240244  0.06600195
Direct configuration=     2
   0.49811811  0.54372910  0.29728312
   0.38193600  0.34226258  0.87004504
   0.38041661  0.64417172  0.36586057
   0.45792709  0.30235542  0.21273560
   0.45952450  0.67594413  0.73986104
   0.34564454  0.77276278  0.04162048
   0.34542913  0.21571623  0.54434592
   0.45761390  0.80516270  0.38702220
   0.45825469  0.17461821  0.86461087
   0.31602866  0.33975950  0.21237984
   0.31663423  0.65235174  0.71243185
   0.42288329  0.26088819  0.54759195
   0.42203636  0.74687042  0.05167367
   0.19272976  0.83306537  0.99821598
   0.19282589  0.16379620  0.49808463
   0.30300966  0.83214571  0.35734738
   0.30309735  0.16003202  0.85827883
   0.38764229  0.84215966  0.72263043
   0.38588411  0.14690792  0.22891481
   0.17798850  0.34329138  0.14378973
   0.17821087  0.65299450  0.64490060
   0.26960503  0.31263657  0.52506554
   0.26945076  0.68456853  0.02357143
   0.03882393  0.81640044  0.97782778
   0.03886720  0.17954128  0.47754702
   0.14995030  0.78244472  0.31158266
   0.14986863  0.21409498  0.81141267
   0.24740092  0.84660398  0.67812882
   0.24684967  0.14794724  0.18150128
   0.03606012  0.31703592  0.12476956
   0.03609225  0.67900976  0.62492804
   0.11529684  0.34474744  0.48535016
   0.11522530  0.65165235  0.98511856
   0.22606821  0.31484933  0.83348885
   0.22598819  0.67712489  0.33272982
   0.10764175  0.84383179  0.62771340
   0.10761152  0.15234652  0.12785711
   0.07295184  0.25851989  0.80371925
   0.07298789  0.73728843  0.30380168
   0.61582460  0.64431892  0.36597846
   0.61430906  0.34242799  0.87013056
   0.53676421  0.67603740  0.73987848
   0.53835025  0.30257206  0.21280875
   0.65082750  0.21611271  0.54450708
   0.65061511  0.77270528  0.04177254
   0.53798062  0.17476012  0.86467158
   0.53862630  0.80525454  0.38703262
   0.67967270  0.65258999  0.71266925
   0.68027278  0.33989980  0.21265204
   0.57422522  0.74708526  0.05174329
   0.57337541  0.26087392  0.54765614
   0.80342797  0.16405154  0.49835160
   0.80352335  0.83315668  0.99848670
   0.69315010  0.16015524  0.85849985
   0.69323446  0.83241433  0.35756807
   0.61040620  0.14707604  0.22900950
   0.60864998  0.84229324  0.72275525
   0.81810631  0.65313383  0.64520779
   0.81832390  0.34350324  0.14410716
   0.72680514  0.68497537  0.02386986
   0.72665453  0.31254881  0.52534469
   0.95738034  0.17974234  0.47756579
   0.95741203  0.81654592  0.97789296
   0.84639890  0.21400028  0.81162227
   0.84631945  0.78287007  0.31179399
   0.74946502  0.14814211  0.18188186
   0.74892083  0.84677609  0.67854399
   0.96023330  0.67929548  0.62501609
   0.96025441  0.31710046  0.12481653
   0.88101834  0.65186843  0.98526244
   0.88094883  0.34487164  0.48549374
   0.77027323  0.67712091  0.33304601
   0.77019534  0.31525761  0.83379074
   0.88869766  0.15251489  0.12801554
   0.88867122  0.84400772  0.62786584
   0.92328987  0.73725043  0.30392827
   0.92332426  0.25888445  0.80382515
   0.99813256  0.77824160  0.29339050
   0.99813323  0.21623063  0.79273136
   0.49812885  0.30158150  0.52787634
   0.49813170  0.78207658  0.06641519
Direct configuration=     3
   0.49811594  0.54074975  0.29530926
   0.38208057  0.34318589  0.86786892
   0.38033291  0.64300074  0.36418638
   0.45841578  0.30601760  0.21706334
   0.45930477  0.67638514  0.74074990
   0.34612940  0.77182156  0.04141700
   0.34581997  0.21696246  0.54395916
   0.45813489  0.80272338  0.38457770
   0.45817171  0.17288554  0.86344902
   0.31591935  0.33732432  0.21382401
   0.31639836  0.65500678  0.71359385
   0.42303267  0.26086339  0.54664232
   0.42219731  0.74741449  0.05212688
   0.19305662  0.83487688  0.99920684
   0.19317461  0.16197757  0.49907849
   0.30271290  0.83427210  0.35603178
   0.30278025  0.15796227  0.85704213
   0.38763239  0.84049015  0.72540293
   0.38592575  0.14901366  0.23116124
   0.17817094  0.34075983  0.14274477
   0.17838774  0.65550248  0.64383076
   0.27027910  0.31245284  0.52456324
   0.27015289  0.68472816  0.02328892
   0.03892037  0.81820124  0.97879824
   0.03897450  0.17767529  0.47851523
   0.14948021  0.78159792  0.31185843
   0.14938784  0.21495847  0.81169267
   0.24737212  0.84342117  0.67811598
   0.24681559  0.15105046  0.18162244
   0.03623813  0.31624927  0.12337902
   0.03626923  0.67993935  0.62355901
   0.11528785  0.34555303  0.48745131
   0.11522333  0.65080737  0.98729680
   0.22541427  0.31494192  0.83365843
   0.22533776  0.67689224  0.33302205
   0.10771350  0.84258497  0.62541991
   0.10769695  0.15365260  0.12560250
   0.07270705  0.25698840  0.80356807
   0.07273626  0.73878426  0.30362314
   0.61590718  0.64315852  0.36430047
   0.61416313  0.34334691  0.86795487
   0.53698513  0.67647277  0.74077054
   0.53786046  0.30622436  0.21713324
   0.65043961  0.21735662  0.54412387
   0.65013413  0.77176415  0.04157051
   0.53806247  0.17303454  0.86350345
   0.53810673  0.80282620  0.38459268
   0.67990717  0.65523168  0.71384360
   0.68038144  0.33747304  0.21410569
   0.57406506  0.74763207  0.05219499
   0.57322821  0.26085507  0.54671250
   0.80307664  0.16224580  0.49933424
   0.80319385  0.83495506  0.99946286
   0.69346467  0.15808142  0.85725073
   0.69352811  0.83454330  0.35624192
   0.61036480  0.14917721  0.23125742
   0.60865863  0.84062417  0.72552912
   0.81792815  0.65564204  0.64414588
   0.81814086  0.34097172  0.14306738
   0.72610235  0.68515052  0.02357740
   0.72597954  0.31235226  0.52484005
   0.95727272  0.17787128  0.47853319
   0.95731405  0.81835527  0.97886312
   0.84688127  0.21486237  0.81190813
   0.84679109  0.78202388  0.31207775
   0.74950082  0.15124243  0.18200732
   0.74895232  0.84359262  0.67854068
   0.96005917  0.68023184  0.62364931
   0.96007847  0.31630630  0.12342690
   0.88101863  0.65101595  0.98744284
   0.88095540  0.34568358  0.48759483
   0.77092204  0.67686754  0.33333204
   0.77084704  0.31536857  0.83395713
   0.88861174  0.15381308  0.12575970
   0.88859755  0.84276431  0.62557174
   0.92354575  0.73874916  0.30374510
   0.92357330  0.25734503  0.80367201
   0.99813318  0.77634554  0.29400548
   0.99813426  0.21815606  0.79339476
   0.49812916  0.30306148  0.52677565
   0.49813300  0.78150435  0.06714088
Direct configuration=     4
   0.49811798  0.54128336  0.29556291
   0.38229745  0.34324617  0.86792703
   0.38039418  0.64358280  0.36492967
   0.45821419  0.30606170  0.21623549
   0.45922937  0.67525262  0.74028880
   0.34638836  0.77113756  0.04160889
   0.34603949  0.21788226  0.54421941
   0.45836452  0.80319654  0.38447349
   0.45815407  0.17281053  0.86445155
   0.31588225  0.33662103  0.21348312
   0.31625798  0.65598550  0.71322769
   0.42314620  0.25985054  0.54651384
   0.42230515  0.74739319  0.05276772
   0.19320015  0.83544747  0.99924318
   0.19333429  0.16127555  0.49912504
   0.30259460  0.83501233  0.35597521
   0.30263528  0.15724666  0.85710947
   0.38768096  0.84059781  0.72543705
   0.38602430  0.14929702  0.23072225
   0.17825506  0.33987890  0.14303432
   0.17846933  0.65637208  0.64414607
   0.27066361  0.31171003  0.52455977
   0.27055564  0.68524946  0.02332653
   0.03894527  0.81863223  0.97860203
   0.03900832  0.17726920  0.47831215
   0.14926790  0.78065514  0.31171614
   0.14917521  0.21590880  0.81154138
   0.24734862  0.84203879  0.67808464
   0.24680464  0.15241903  0.18160056
   0.03633069  0.31659153  0.12335979
   0.03635960  0.67962972  0.62352795
   0.11515949  0.34559645  0.48710014
   0.11510063  0.65079465  0.98698994
   0.22504323  0.31465685  0.83351198
   0.22496106  0.67722811  0.33296997
   0.10772293  0.84251123  0.62572831
   0.10771530  0.15371608  0.12590637
   0.07262490  0.25629404  0.80318113
   0.07265028  0.73946480  0.30320784
   0.61584545  0.64374455  0.36504315
   0.61394615  0.34340633  0.86801757
   0.53706124  0.67533775  0.74030840
   0.53805941  0.30627194  0.21630903
   0.65022102  0.21827363  0.54438759
   0.64987704  0.77108234  0.04176612
   0.53807915  0.17296215  0.86450422
   0.53787751  0.80330734  0.38449059
   0.68004716  0.65620095  0.71347374
   0.68041829  0.33677760  0.21376134
   0.57395796  0.74761011  0.05283827
   0.57311652  0.25984762  0.54658292
   0.80291467  0.16154594  0.49938173
   0.80304841  0.83552438  0.99949998
   0.69360742  0.15736618  0.85732209
   0.69364405  0.83527985  0.35618778
   0.61026746  0.14945682  0.23081900
   0.60861094  0.84073629  0.72556188
   0.81784597  0.65651606  0.64445862
   0.81805630  0.34008539  0.14335258
   0.72569912  0.68568068  0.02361382
   0.72559421  0.31159975  0.52483496
   0.95723847  0.17746344  0.47833102
   0.95728779  0.81878856  0.97866712
   0.84709542  0.21581332  0.81175985
   0.84700452  0.78108068  0.31193726
   0.74951282  0.15260873  0.18198260
   0.74897711  0.84220997  0.67850889
   0.95997049  0.67993054  0.62361961
   0.95998745  0.31664244  0.12340755
   0.88114026  0.65099364  0.98714039
   0.88108236  0.34573435  0.48724738
   0.77129806  0.67718792  0.33327527
   0.77121720  0.31509707  0.83381268
   0.88859352  0.15387486  0.12606082
   0.88858762  0.84268825  0.62587893
   0.92363322  0.73943071  0.30332930
   0.92365687  0.25664696  0.80328201
   0.99813316  0.77449297  0.29434902
   0.99813454  0.22004390  0.79375579
   0.49812869  0.30258385  0.52943607
   0.49813350  0.78223143  0.06520820
Direct configuration=     5
   0.49812078  0.54201306  0.29590976
   0.38259401  0.34332860  0.86800650
   0.38047795  0.64437874  0.36594609
   0.45793853  0.30612199  0.21510344
   0.45912626  0.67370395  0.73965828
   0.34674248  0.77020222  0.04187130
   0.34633966  0.21914004  0.54457529
   0.45867851  0.80384356  0.38433099
   0.45812995  0.17270796  0.86582246
   0.31583152  0.33565933  0.21301697
   0.31606602  0.65732384  0.71272699
   0.42330145  0.25846551  0.54633815
   0.42245261  0.74736407  0.05364405
   0.19339641  0.83622772  0.99929286
   0.19355265  0.16031558  0.49918868
   0.30243282  0.83602455  0.35589785
   0.30243703  0.15626810  0.85720156
   0.38774737  0.84074503  0.72548372
   0.38615906  0.14968451  0.23012196
   0.17837008  0.33867429  0.14343026
   0.17858092  0.65756123  0.64457725
   0.27118940  0.31069427  0.52455503
   0.27110638  0.68596231  0.02337796
   0.03897933  0.81922159  0.97833371
   0.03905457  0.17671389  0.47803444
   0.14897757  0.77936595  0.31152155
   0.14888446  0.21720832  0.81133451
   0.24731650  0.84014847  0.67804178
   0.24678968  0.15429049  0.18157064
   0.03645727  0.31705955  0.12333349
   0.03648318  0.67920632  0.62348548
   0.11498397  0.34565581  0.48661993
   0.11493284  0.65077725  0.98657032
   0.22453585  0.31426703  0.83331172
   0.22444596  0.67768740  0.33289877
   0.10773582  0.84241038  0.62615004
   0.10774040  0.15380288  0.12632190
   0.07251258  0.25534454  0.80265200
   0.07253270  0.74039540  0.30263994
   0.61576104  0.64454592  0.36605873
   0.61364945  0.34348759  0.86810332
   0.53716530  0.67378566  0.73967645
   0.53833147  0.30633700  0.21518195
   0.64992212  0.21952761  0.54474821
   0.64952549  0.77015000  0.04203360
   0.53810196  0.17286316  0.86587273
   0.53756405  0.80396528  0.38435098
   0.68023859  0.65752637  0.71296798
   0.68046868  0.33582662  0.21329046
   0.57381152  0.74758008  0.05371792
   0.57296379  0.25847000  0.54640573
   0.80269320  0.16058890  0.49944668
   0.80284955  0.83630290  0.99955075
   0.69380262  0.15638812  0.85741968
   0.69380260  0.83628705  0.35611375
   0.61013435  0.14983916  0.23021948
   0.60854572  0.84088961  0.72560668
   0.81773358  0.65771125  0.64488626
   0.81794069  0.33887338  0.14374259
   0.72514773  0.68640565  0.02366362
   0.72506730  0.31057073  0.52482800
   0.95719163  0.17690574  0.47805456
   0.95725188  0.81938107  0.97839910
   0.84738827  0.21711369  0.81155709
   0.84729638  0.77979091  0.31174516
   0.74952923  0.15447707  0.18194880
   0.74901101  0.84031927  0.67846541
   0.95984922  0.67951854  0.62357901
   0.95986299  0.31710210  0.12338110
   0.88130657  0.65096313  0.98672682
   0.88125597  0.34580378  0.48677225
   0.77181224  0.67762602  0.33319764
   0.77172337  0.31472581  0.83361516
   0.88856861  0.15395933  0.12647260
   0.88857403  0.84258423  0.62629899
   0.92375284  0.74036268  0.30276072
   0.92377115  0.25569239  0.80274871
   0.99813312  0.77195967  0.29481879
   0.99813493  0.22262542  0.79424949
   0.49812805  0.30193071  0.53307408
   0.49813417  0.78322568  0.06256537
Direct configuration=     6
   0.49811957  0.54153917  0.29598666
   0.38293072  0.34291271  0.86860067
   0.38070196  0.64533639  0.36691848
   0.45813130  0.30702407  0.21578274
   0.45902688  0.67385149  0.73943679
   0.34681285  0.76980874  0.04196625
   0.34645016  0.21969486  0.54481291
   0.45880881  0.80400615  0.38453078
   0.45806912  0.17262762  0.86608110
   0.31591286  0.33559200  0.21226261
   0.31606777  0.65773379  0.71208250
   0.42335979  0.25735666  0.54664434
   0.42245884  0.74733118  0.05368213
   0.19339882  0.83582821  0.99898981
   0.19357546  0.16051030  0.49885951
   0.30246542  0.83572861  0.35619729
   0.30242898  0.15660455  0.85769201
   0.38785972  0.84112236  0.72532575
   0.38625895  0.14992671  0.22950062
   0.17834252  0.33832274  0.14407705
   0.17855076  0.65786350  0.64524226
   0.27137373  0.30970021  0.52484047
   0.27129155  0.68661885  0.02362233
   0.03893098  0.81899293  0.97793591
   0.03901299  0.17699563  0.47764780
   0.14892938  0.77869419  0.31139686
   0.14885030  0.21784971  0.81118306
   0.24729234  0.83982496  0.67807186
   0.24682394  0.15465816  0.18146509
   0.03649417  0.31770831  0.12352595
   0.03652049  0.67855866  0.62366885
   0.11472707  0.34508323  0.48589241
   0.11468339  0.65134845  0.98585524
   0.22436310  0.31382256  0.83291427
   0.22426044  0.67833651  0.33260245
   0.10767848  0.84254663  0.62647148
   0.10768818  0.15364924  0.12664966
   0.07256188  0.25529881  0.80251950
   0.07258139  0.74047494  0.30250687
   0.61553648  0.64550168  0.36703087
   0.61331251  0.34307617  0.86869912
   0.53726629  0.67393122  0.73945338
   0.53814081  0.30722735  0.21585598
   0.64981193  0.22008275  0.54498389
   0.64945527  0.76975760  0.04212921
   0.53816268  0.17278280  0.86613168
   0.53743513  0.80413716  0.38455626
   0.68023749  0.65793749  0.71232234
   0.68038798  0.33575454  0.21253846
   0.57380452  0.74754661  0.05375731
   0.57290499  0.25736324  0.54671022
   0.80266721  0.16077796  0.49912402
   0.80284456  0.83590829  0.99925110
   0.69380919  0.15672371  0.85791397
   0.69376845  0.83598772  0.35641750
   0.61003355  0.15008444  0.22960014
   0.60843396  0.84126807  0.72545102
   0.81776330  0.65801559  0.64554968
   0.81796812  0.33851909  0.14438711
   0.72496343  0.68706447  0.02390513
   0.72488367  0.30957055  0.52511184
   0.95723319  0.17719592  0.47766772
   0.95729935  0.81914665  0.97800200
   0.84742306  0.21775176  0.81140275
   0.84734459  0.77912245  0.31161664
   0.74949454  0.15484110  0.18184047
   0.74903411  0.83999753  0.67849184
   0.95981367  0.67887679  0.62376555
   0.95982796  0.31774474  0.12357418
   0.88155574  0.65153354  0.98601091
   0.88151230  0.34522829  0.48604196
   0.77199830  0.67826662  0.33289950
   0.77189658  0.31428746  0.83321753
   0.88862225  0.15380063  0.12680423
   0.88863247  0.84272189  0.62662588
   0.92370398  0.74043770  0.30262986
   0.92372185  0.25564955  0.80261430
   0.99813285  0.76984007  0.29499327
   0.99813490  0.22476849  0.79439629
   0.49812799  0.30119987  0.53197315
   0.49813474  0.78164169  0.06232342
Direct configuration=     7
   0.49811833  0.54105171  0.29606576
   0.38327707  0.34248489  0.86921187
   0.38093238  0.64632148  0.36791874
   0.45832959  0.30795200  0.21648152
   0.45892465  0.67400326  0.73920896
   0.34688524  0.76940398  0.04206392
   0.34656383  0.22026559  0.54505735
   0.45894284  0.80417341  0.38473630
   0.45800655  0.17254497  0.86634715
   0.31599653  0.33552274  0.21148663
   0.31606957  0.65815549  0.71141953
   0.42341979  0.25621604  0.54695930
   0.42246525  0.74729735  0.05372130
   0.19340129  0.83541725  0.99867807
   0.19359892  0.16071061  0.49852090
   0.30249896  0.83542419  0.35650531
   0.30242070  0.15695064  0.85819652
   0.38797529  0.84151050  0.72516325
   0.38636171  0.15017585  0.22886147
   0.17831417  0.33796112  0.14474238
   0.17851974  0.65817443  0.64592634
   0.27156335  0.30867766  0.52513409
   0.27148202  0.68729421  0.02387371
   0.03888124  0.81875772  0.97752671
   0.03897023  0.17728544  0.47725007
   0.14887980  0.77800317  0.31126859
   0.14881516  0.21850948  0.81102727
   0.24726748  0.83949219  0.67810280
   0.24685919  0.15503636  0.18135652
   0.03653213  0.31837566  0.12372393
   0.03655887  0.67789244  0.62385746
   0.11446281  0.34449423  0.48514403
   0.11442679  0.65193601  0.98511966
   0.22418539  0.31336534  0.83250543
   0.22406960  0.67900423  0.33229764
   0.10761950  0.84268679  0.62680212
   0.10763446  0.15349119  0.12698682
   0.07261259  0.25525177  0.80238320
   0.07263148  0.74055676  0.30236997
   0.61530549  0.64648484  0.36803087
   0.61296591  0.34265295  0.86931200
   0.53737016  0.67408095  0.73922391
   0.53794468  0.30814322  0.21654933
   0.64969858  0.22065381  0.54522632
   0.64938303  0.76935395  0.04222756
   0.53822514  0.17270013  0.86639805
   0.53730252  0.80431396  0.38476743
   0.68023636  0.65836039  0.71165819
   0.68030497  0.33568039  0.21176491
   0.57379733  0.74751218  0.05379783
   0.57284451  0.25622476  0.54702343
   0.80264047  0.16097244  0.49879211
   0.80283944  0.83550237  0.99894287
   0.69381594  0.15706893  0.85842243
   0.69373332  0.83567981  0.35672995
   0.60992987  0.15033675  0.22896306
   0.60831899  0.84165738  0.72529089
   0.81779387  0.65832866  0.64623212
   0.81799635  0.33815465  0.14505010
   0.72477385  0.68774216  0.02415356
   0.72469478  0.30854171  0.52540382
   0.95727595  0.17749441  0.47726980
   0.95734819  0.81890552  0.97759353
   0.84745884  0.21840811  0.81124400
   0.84739417  0.77843484  0.31148443
   0.74945886  0.15521557  0.18172902
   0.74905787  0.83966656  0.67851903
   0.95977709  0.67821666  0.62395744
   0.95979193  0.31840580  0.12377279
   0.88181206  0.65212029  0.98527448
   0.88177598  0.34463630  0.48529073
   0.77218969  0.67892558  0.33259282
   0.77207476  0.31383655  0.83280851
   0.88867743  0.15363739  0.12714537
   0.88869258  0.84286350  0.62696214
   0.92365371  0.74051486  0.30249526
   0.92367114  0.25560548  0.80247603
   0.99813256  0.76765972  0.29517275
   0.99813487  0.22697299  0.79454729
   0.49812792  0.30044808  0.53084068
   0.49813532  0.78001230  0.06207454
Direct configuration=     8
   0.49812028  0.54178064  0.29643368
   0.38366666  0.34242919  0.86908041
   0.38128876  0.64697888  0.36797071
   0.45828241  0.30737469  0.21651467
   0.45888415  0.67392593  0.73915651
   0.34693831  0.76942693  0.04200535
   0.34668582  0.22063219  0.54500480
   0.45898108  0.80483084  0.38473938
   0.45800671  0.17249629  0.86649105
   0.31613572  0.33490879  0.21161810
   0.31613461  0.65901693  0.71139298
   0.42346563  0.25571026  0.54700386
   0.42250866  0.74705456  0.05377455
   0.19332450  0.83465831  0.99862120
   0.19355030  0.16129797  0.49839323
   0.30263233  0.83483302  0.35639574
   0.30249867  0.15765330  0.85829998
   0.38811670  0.84133941  0.72604243
   0.38651955  0.15110251  0.22949064
   0.17825859  0.33711731  0.14485324
   0.17844988  0.65891855  0.64594458
   0.27168084  0.30804107  0.52534009
   0.27158977  0.68755148  0.02402415
   0.03879254  0.81894974  0.97757189
   0.03888572  0.17714991  0.47731859
   0.14883816  0.77777566  0.31132283
   0.14879859  0.21861581  0.81106827
   0.24724308  0.83927187  0.67824038
   0.24692367  0.15532338  0.18117958
   0.03655041  0.31853674  0.12340979
   0.03658048  0.67775190  0.62355400
   0.11413057  0.34390685  0.48508806
   0.11410798  0.65245204  0.98505554
   0.22409759  0.31319240  0.83217674
   0.22396807  0.67946839  0.33204787
   0.10752997  0.84237591  0.62614224
   0.10754776  0.15379285  0.12629067
   0.07264786  0.25534509  0.80242548
   0.07266711  0.74052290  0.30241192
   0.61494813  0.64714118  0.36808111
   0.61257659  0.34260311  0.86917791
   0.53741240  0.67400185  0.73917333
   0.53799180  0.30757266  0.21659085
   0.64957647  0.22102283  0.54517317
   0.64932919  0.76937295  0.04216926
   0.53822488  0.17265185  0.86653624
   0.53726405  0.80495982  0.38476738
   0.68017121  0.65922016  0.71163862
   0.68016642  0.33506032  0.21190601
   0.57375324  0.74727349  0.05385164
   0.57279776  0.25572175  0.54707051
   0.80268536  0.16155371  0.49866637
   0.80291327  0.83474852  0.99888695
   0.69373635  0.15777511  0.85852416
   0.69359876  0.83508123  0.35661818
   0.60977045  0.15126096  0.22959287
   0.60817797  0.84148833  0.72617303
   0.81786408  0.65906703  0.64625425
   0.81805278  0.33731444  0.14516582
   0.72466840  0.68799191  0.02430250
   0.72457928  0.30791103  0.52560542
   0.95736068  0.17736836  0.47733865
   0.95743608  0.81909255  0.97764107
   0.84747579  0.21850762  0.81128142
   0.84743582  0.77821532  0.31153631
   0.74939398  0.15549873  0.18155151
   0.74908064  0.83944623  0.67865170
   0.95975796  0.67808413  0.62365720
   0.95977620  0.31855688  0.12345749
   0.88213019  0.65263843  0.98520898
   0.88210730  0.34404048  0.48523061
   0.77229125  0.67938738  0.33234012
   0.77216298  0.31366076  0.83247800
   0.88876548  0.15393681  0.12645012
   0.88878305  0.84255030  0.62630410
   0.92361765  0.74047304  0.30254018
   0.92363550  0.25570495  0.80251866
   0.99813270  0.76513855  0.29543272
   0.99813513  0.22950687  0.79476679
   0.49812817  0.29944582  0.53122836
   0.49813615  0.77839708  0.06177928
Direct configuration=     9
   0.49812247  0.54260024  0.29684737
   0.38410470  0.34236655  0.86893261
   0.38168946  0.64771806  0.36802915
   0.45822936  0.30672557  0.21655194
   0.45883861  0.67383898  0.73909755
   0.34699799  0.76945273  0.04193948
   0.34682299  0.22104441  0.54494573
   0.45902408  0.80557005  0.38474286
   0.45800689  0.17244156  0.86665284
   0.31629223  0.33421846  0.21176593
   0.31620775  0.65998553  0.71136312
   0.42351716  0.25514156  0.54705396
   0.42255747  0.74678157  0.05383443
   0.19323815  0.83380496  0.99855726
   0.19349564  0.16195839  0.49824967
   0.30278229  0.83416830  0.35627253
   0.30258634  0.15844337  0.85841632
   0.38827570  0.84114704  0.72703097
   0.38669703  0.15214444  0.23019809
   0.17819609  0.33616854  0.14497789
   0.17837133  0.65975522  0.64596508
   0.27181296  0.30732529  0.52557172
   0.27171092  0.68784076  0.02419331
   0.03869280  0.81916564  0.97762268
   0.03879069  0.17699752  0.47739564
   0.14879134  0.77751985  0.31138382
   0.14877996  0.21873538  0.81111436
   0.24721563  0.83902415  0.67839507
   0.24699617  0.15564612  0.18098062
   0.03657097  0.31871786  0.12305657
   0.03660478  0.67759387  0.62321279
   0.11375700  0.34324640  0.48502512
   0.11374950  0.65303226  0.98498344
   0.22399885  0.31299794  0.83180715
   0.22385392  0.67999028  0.33176702
   0.10742930  0.84202636  0.62540027
   0.10745027  0.15413204  0.12550792
   0.07268751  0.25545002  0.80247301
   0.07270716  0.74048483  0.30245908
   0.61454631  0.64787917  0.36813761
   0.61213883  0.34254706  0.86902714
   0.53745990  0.67391291  0.73911645
   0.53804479  0.30693113  0.21663754
   0.64943918  0.22143776  0.54511341
   0.64926864  0.76939431  0.04210371
   0.53822458  0.17259757  0.86669162
   0.53722079  0.80568602  0.38476732
   0.68009796  0.66018688  0.71161661
   0.68001065  0.33436313  0.21206467
   0.57370368  0.74700512  0.05391213
   0.57274520  0.25515618  0.54712345
   0.80273583  0.16220729  0.49852498
   0.80299629  0.83390090  0.99882408
   0.69364685  0.15856914  0.85863854
   0.69344747  0.83440820  0.35649250
   0.60959120  0.15230014  0.23030103
   0.60801941  0.84129826  0.72716489
   0.81794302  0.65989726  0.64627914
   0.81811623  0.33636970  0.14529594
   0.72454982  0.68827271  0.02446996
   0.72444940  0.30720190  0.52583210
   0.95745595  0.17722663  0.47741608
   0.95753492  0.81930285  0.97769452
   0.84749484  0.21861950  0.81132350
   0.84748265  0.77796849  0.31159465
   0.74932102  0.15581711  0.18135191
   0.74910623  0.83919849  0.67880087
   0.95973645  0.67793511  0.62331960
   0.95975852  0.31872675  0.12310296
   0.88248790  0.65322102  0.98513532
   0.88247984  0.34337053  0.48516300
   0.77240545  0.67990664  0.33205597
   0.77226218  0.31346311  0.83210637
   0.88886448  0.15427347  0.12566838
   0.88888477  0.84219813  0.62556420
   0.92357710  0.74042601  0.30259070
   0.92359543  0.25581679  0.80256659
   0.99813287  0.76230375  0.29572503
   0.99813542  0.23235595  0.79501359
   0.49812845  0.29831888  0.53166427
   0.49813707  0.77658093  0.06144729
Direct configuration=    10
   0.49811995  0.54156954  0.29693947
   0.38426131  0.34290575  0.86916597
   0.38196690  0.64782073  0.36811573
   0.45825675  0.30694546  0.21700701
   0.45889426  0.67324304  0.73910144
   0.34710975  0.76958681  0.04220028
   0.34694823  0.22139944  0.54520496
   0.45899591  0.80522784  0.38452427
   0.45809859  0.17203845  0.86660252
   0.31635677  0.33381523  0.21242370
   0.31624665  0.66057073  0.71156620
   0.42360551  0.25559634  0.54724597
   0.42269045  0.74714085  0.05415241
   0.19314765  0.83343208  0.99858709
   0.19342466  0.16227658  0.49824746
   0.30294238  0.83398684  0.35618627
   0.30270938  0.15880885  0.85830931
   0.38831565  0.84126798  0.72707792
   0.38678602  0.15167333  0.23011515
   0.17822025  0.33555432  0.14460749
   0.17835632  0.66031933  0.64538913
   0.27188080  0.30768626  0.52528975
   0.27177051  0.68717035  0.02396395
   0.03863587  0.81984957  0.97769857
   0.03873208  0.17635229  0.47747669
   0.14869115  0.77749809  0.31120452
   0.14870270  0.21860055  0.81095865
   0.24720703  0.83890260  0.67856340
   0.24703786  0.15581622  0.18077560
   0.03656659  0.31860450  0.12288770
   0.03660183  0.67776560  0.62305081
   0.11358616  0.34338933  0.48490220
   0.11359366  0.65279033  0.98485377
   0.22398403  0.31346467  0.83204433
   0.22384551  0.67981781  0.33195968
   0.10738039  0.84187944  0.62534062
   0.10740086  0.15421531  0.12536283
   0.07255345  0.25524911  0.80211106
   0.07257129  0.74069732  0.30207607
   0.61426494  0.64798699  0.36822847
   0.61197944  0.34308168  0.86926363
   0.53740516  0.67331647  0.73911712
   0.53801930  0.30714540  0.21707703
   0.64931340  0.22179038  0.54537702
   0.64915638  0.76952529  0.04237302
   0.53813263  0.17219717  0.86665402
   0.53724891  0.80534328  0.38455552
   0.68005802  0.66076988  0.71181864