 running on   40 total cores
 distrk:  each k-point on   40 cores,    1 groups
 distr:  one band on    1 cores,   40 groups
 using from now: INCAR     
 vasp.6.1.1 19Jun20 (build Jan 13 2022 18:23:11) complex                        
  
 POSCAR found type information on POSCAR O Ti
 POSCAR found :  2 types and      81 ions
 scaLAPACK will be used
 -----------------------------------------------------------------------------
|                                                                             |
|           W    W    AA    RRRRR   N    N  II  N    N   GGGG   !!!           |
|           W    W   A  A   R    R  NN   N  II  NN   N  G    G  !!!           |
|           W    W  A    A  R    R  N N  N  II  N N  N  G       !!!           |
|           W WW W  AAAAAA  RRRRR   N  N N  II  N  N N  G  GGG   !            |
|           WW  WW  A    A  R   R   N   NN  II  N   NN  G    G                |
|           W    W  A    A  R    R  N    N  II  N    N   GGGG   !!!           |
|                                                                             |
|     For optimal performance we recommend to set                             |
|       NCORE = 4 - approx SQRT(number of cores).                             |
|     NCORE specifies how many cores store one orbital (NPAR=cpu/NCORE).      |
|     This setting can greatly improve the performance of VASP for DFT.       |
|     The default, NCORE=1 might be grossly inefficient on modern             |
|     multi-core architectures or massively parallel machines. Do your        |
|     own testing!!!!                                                         |
|     Unfortunately you need to use the default for GW and RPA                |
|     calculations (for HF NCORE is supported but not extensively tested      |
|     yet).                                                                   |
|                                                                             |
 -----------------------------------------------------------------------------

 -----------------------------------------------------------------------------
|                                                                             |
|               ----> ADVICE to this user running VASP <----                  |
|                                                                             |
|     You have a (more or less) 'large supercell' and for larger cells it     |
|     might be more efficient to use real-space projection operators.         |
|     Therefore, try LREAL= Auto in the INCAR file.                           |
|     Mind: For very accurate calculation, you might also keep the            |
|     reciprocal projection scheme (i.e. LREAL=.FALSE.).                      |
|                                                                             |
 -----------------------------------------------------------------------------

 LDA part: xc-table for Pade appr. of Perdew
 POSCAR, INCAR and KPOINTS ok, starting setup
 FFT: planning ...
 WAVECAR not read
 WARNING: random wavefunctions but no delay for mixing, default for NELMDL
 entering main loop
       N       E                     dE             d eps       ncg     rms          rms(c)
DAV:   1     0.133788355803E+05    0.13379E+05   -0.40833E+05  7200   0.174E+03
DAV:   2     0.135079976551E+04   -0.12028E+05   -0.11752E+05  7200   0.585E+02
DAV:   3    -0.394693037503E+03   -0.17455E+04   -0.16496E+04 10800   0.196E+02
DAV:   4    -0.692151312892E+03   -0.29746E+03   -0.29261E+03 10360   0.686E+01
DAV:   5    -0.719138818693E+03   -0.26988E+02   -0.26866E+02 11320   0.173E+01    0.756E+01
DAV:   6    -0.636532845427E+03    0.82606E+02   -0.33409E+02  9600   0.400E+01    0.226E+01
DAV:   7    -0.749806399619E+03   -0.11327E+03   -0.26714E+02 10760   0.425E+01    0.778E+01
DAV:   8    -0.765963698179E+03   -0.16157E+02   -0.36166E+02 11040   0.303E+01    0.869E+01
DAV:   9    -0.634008573350E+03    0.13196E+03   -0.19878E+02 11360   0.226E+01    0.195E+01
DAV:  10    -0.648430041503E+03   -0.14421E+02   -0.86760E+01 10600   0.189E+01    0.303E+01
DAV:  11    -0.635067791842E+03    0.13362E+02   -0.50857E+01 10840   0.141E+01    0.147E+01
DAV:  12    -0.634690742540E+03    0.37705E+00   -0.15126E+01 10400   0.912E+00    0.969E+00
DAV:  13    -0.634877154755E+03   -0.18641E+00   -0.14211E+01 10200   0.114E+01    0.787E+00
DAV:  14    -0.634303287359E+03    0.57387E+00   -0.68621E+00 10600   0.807E+00    0.526E+00
DAV:  15    -0.633869869684E+03    0.43342E+00   -0.28865E+00 10080   0.534E+00    0.222E+00
DAV:  16    -0.633873640921E+03   -0.37712E-02   -0.80396E-01 10280   0.289E+00    0.202E+00
DAV:  17    -0.633827442447E+03    0.46198E-01   -0.31363E-01  9840   0.200E+00    0.916E-01
DAV:  18    -0.633832924422E+03   -0.54820E-02   -0.10511E-01 10320   0.105E+00    0.864E-01
DAV:  19    -0.633824910124E+03    0.80143E-02   -0.48460E-02  9760   0.806E-01    0.421E-01
DAV:  20    -0.633824918513E+03   -0.83898E-05   -0.23638E-02 10200   0.562E-01    0.418E-01
DAV:  21    -0.633821749932E+03    0.31686E-02   -0.11815E-02 10160   0.423E-01    0.215E-01
DAV:  22    -0.633821363761E+03    0.38617E-03   -0.36020E-03 10240   0.206E-01    0.128E-01
DAV:  23    -0.633821307270E+03    0.56490E-04   -0.14596E-03  9760   0.131E-01    0.769E-02
DAV:  24    -0.633821260273E+03    0.46997E-04   -0.65656E-04  9640   0.976E-02    0.439E-02
DAV:  25    -0.633821273344E+03   -0.13071E-04   -0.29751E-04 10360   0.581E-02    0.444E-02
DAV:  26    -0.633821252156E+03    0.21188E-04   -0.16891E-04  9560   0.469E-02    0.191E-02
DAV:  27    -0.633821264860E+03   -0.12704E-04   -0.75380E-05  7600   0.295E-02    0.238E-02
DAV:  28    -0.633821263016E+03    0.18434E-05   -0.41586E-05  6560   0.250E-02
   1 F= -.63382126E+03 E0= -.63376135E+03  d E =-.633821E+03
 BRION: g(F)=  0.195E-04 g(S)=  0.000E+00
 bond charge predicted
       N       E                     dE             d eps       ncg     rms          rms(c)
DAV:   1    -0.633821176170E+03    0.88690E-04   -0.40181E-03  8680   0.272E-01    0.215E-02
DAV:   2    -0.633821597420E+03   -0.42125E-03   -0.20133E-03  9200   0.145E-01    0.103E-01
DAV:   3    -0.633821288211E+03    0.30921E-03   -0.15473E-03  9920   0.152E-01    0.295E-02
DAV:   4    -0.633821335291E+03   -0.47081E-04   -0.50474E-04  9200   0.609E-02    0.506E-02
DAV:   5    -0.633821281207E+03    0.54085E-04   -0.33536E-04  8240   0.557E-02    0.165E-02
DAV:   6    -0.633821276187E+03    0.50194E-05   -0.24906E-05  5760   0.210E-02
   2 F= -.63382128E+03 E0= -.63376137E+03  d E =-.131709E-04
 BRION: g(F)=  0.203E-04 g(S)=  0.000E+00 retain N=  1 mean eig= 0.73
 eig:   0.729
 bond charge predicted
       N       E                     dE             d eps       ncg     rms          rms(c)
DAV:   1    -0.633821265030E+03    0.16177E-04   -0.77104E-04  8680   0.116E-01    0.903E-03
DAV:   2    -0.633821296826E+03   -0.31796E-04   -0.24087E-04  8120   0.368E-02    0.261E-02
DAV:   3    -0.633821288055E+03    0.87713E-05   -0.13375E-04  5640   0.359E-02    0.172E-02
DAV:   4    -0.633821284501E+03    0.35540E-05   -0.35590E-05  5120   0.210E-02    0.994E-03
DAV:   5    -0.633821283971E+03    0.52979E-06   -0.18888E-05  4440   0.175E-02    0.817E-03
DAV:   6    -0.633821282583E+03    0.13874E-05   -0.74802E-06  4320   0.117E-02
   3 F= -.63382128E+03 E0= -.63376138E+03  d E =-.639628E-05
 BRION: g(F)=  0.189E-04 g(S)=  0.000E+00 retain N=  2 mean eig= 1.49
 eig:   0.775  2.199
 bond charge predicted
       N       E                     dE             d eps       ncg     rms          rms(c)
DAV:   1    -0.633821284615E+03   -0.64373E-06   -0.70455E-05  8480   0.363E-02    0.544E-03
DAV:   2    -0.633821290632E+03   -0.60175E-05   -0.35402E-05  7360   0.223E-02    0.159E-02
DAV:   3    -0.633821289215E+03    0.14168E-05   -0.30515E-05  5240   0.240E-02    0.120E-02
DAV:   4    -0.633821285952E+03    0.32633E-05   -0.17406E-05  4440   0.149E-02    0.455E-03
DAV:   5    -0.633821286091E+03   -0.13855E-06   -0.59257E-06  4320   0.634E-03    0.377E-03
DAV:   6    -0.633821286064E+03    0.26295E-07   -0.29688E-06  4320   0.559E-03
   4 F= -.63382129E+03 E0= -.63376138E+03  d E =-.348085E-05
 BRION: g(F)=  0.122E-04 g(S)=  0.000E+00 retain N=  3 mean eig= 1.50
 eig:   0.812  0.812  2.882
 bond charge predicted
       N       E                     dE             d eps       ncg     rms          rms(c)
DAV:   1    -0.633821267563E+03    0.18527E-04   -0.81675E-04  8680   0.126E-01    0.902E-03
DAV:   2    -0.633821294678E+03   -0.27115E-04   -0.26241E-04  7200   0.327E-02    0.175E-02
DAV:   3    -0.633821300785E+03   -0.61071E-05   -0.12034E-04  5160   0.332E-02    0.226E-02
DAV:   4    -0.633821290838E+03    0.99473E-05   -0.56080E-05  5080   0.240E-02    0.733E-03
DAV:   5    -0.633821290060E+03    0.77809E-06   -0.58134E-06  4320   0.911E-03    0.378E-03
DAV:   6    -0.633821290267E+03   -0.20704E-06   -0.30345E-06  4320   0.685E-03
   5 F= -.63382129E+03 E0= -.63376138E+03  d E =-.420239E-05
 BRION: g(F)=  0.143E-04 g(S)=  0.000E+00 retain N=  4 mean eig= 2.04
 eig:   3.235  0.756  0.756  3.405
 bond charge predicted
       N       E                     dE             d eps       ncg     rms          rms(c)
DAV:   1    -0.633821264001E+03    0.26058E-04   -0.12317E-03  8680   0.153E-01    0.121E-02
DAV:   2    -0.633821497807E+03   -0.23381E-03   -0.95909E-04  9520   0.111E-01    0.797E-02
DAV:   3    -0.633821295715E+03    0.20209E-03   -0.79062E-04 10160   0.109E-01    0.143E-02
DAV:   4    -0.633821309017E+03   -0.13302E-04   -0.14270E-04  7120   0.315E-02    0.259E-02
DAV:   5    -0.633821297021E+03    0.11996E-04   -0.91276E-05  5640   0.308E-02    0.104E-02
DAV:   6    -0.633821295557E+03    0.14643E-05   -0.11398E-05  4560   0.125E-02
   6 F= -.63382130E+03 E0= -.63376140E+03  d E =-.529004E-05
 BRION: g(F)=  0.138E-04 g(S)=  0.000E+00 retain N=  5 mean eig= 2.05
 eig:   4.887  2.837  0.769  0.769  0.979
 bond charge predicted
       N       E                     dE             d eps       ncg     rms          rms(c)
DAV:   1    -0.633821236975E+03    0.60046E-04   -0.32206E-03  8680   0.233E-01    0.152E-02
DAV:   2    -0.633821311012E+03   -0.74037E-04   -0.77388E-04  7680   0.502E-02    0.172E-02
DAV:   3    -0.633821314761E+03   -0.37491E-05   -0.76124E-05  8560   0.313E-02    0.182E-02
DAV:   4    -0.633821318890E+03   -0.41292E-05   -0.94559E-05  5120   0.283E-02    0.225E-02
DAV:   5    -0.633821308932E+03    0.99581E-05   -0.50137E-05  5000   0.215E-02    0.796E-03
DAV:   6    -0.633821312104E+03   -0.31726E-05   -0.19392E-05  4440   0.175E-02
   7 F= -.63382131E+03 E0= -.63376143E+03  d E =-.165477E-04
 BRION: g(F)=  0.245E-04 g(S)=  0.000E+00 retain N=  2 mean eig= 4.23
 eig:   1.613  6.850
 bond charge predicted
       N       E                     dE             d eps       ncg     rms          rms(c)
DAV:   1    -0.633820022233E+03    0.12867E-02   -0.52148E-02  8560   0.969E-01    0.689E-02
DAV:   2    -0.633821429787E+03   -0.14076E-02   -0.14160E-02  8400   0.234E-01    0.105E-01
DAV:   3    -0.633821989880E+03   -0.56009E-03   -0.65878E-03 11440   0.252E-01    0.174E-01
DAV:   4    -0.633821505124E+03    0.48476E-03   -0.46494E-03 10960   0.192E-01    0.943E-02
DAV:   5    -0.633821326911E+03    0.17821E-03   -0.14187E-03 10080   0.134E-01    0.537E-02
DAV:   6    -0.633821268118E+03    0.58793E-04   -0.30969E-04  9640   0.661E-02    0.262E-02
DAV:   7    -0.633821272424E+03   -0.43062E-05   -0.13293E-04  9280   0.395E-02    0.297E-02
DAV:   8    -0.633821261530E+03    0.10894E-04   -0.82588E-05  8560   0.349E-02    0.140E-02
DAV:   9    -0.633821261859E+03   -0.32848E-06   -0.35411E-05  6560   0.223E-02
   8 F= -.63382126E+03 E0= -.63376134E+03  d E =0.502456E-04
 BRION: g(F)=  0.646E-05 g(S)=  0.000E+00 retain N=  1 mean eig= 3.82
 eig:   3.823
 reached required accuracy - stopping structural energy minimisation
 writing wavefunctions
