 running on   20 total cores
 distrk:  each k-point on   20 cores,    1 groups
 distr:  one band on    1 cores,   20 groups
 using from now: INCAR     
 vasp.6.1.1 19Jun20 (build Jan 13 2022 18:23:11) complex                        
  
 POSCAR found type information on POSCAR O Ti
 POSCAR found :  2 types and      81 ions
 scaLAPACK will be used
 -----------------------------------------------------------------------------
|                                                                             |
|           W    W    AA    RRRRR   N    N  II  N    N   GGGG   !!!           |
|           W    W   A  A   R    R  NN   N  II  NN   N  G    G  !!!           |
|           W    W  A    A  R    R  N N  N  II  N N  N  G       !!!           |
|           W WW W  AAAAAA  RRRRR   N  N N  II  N  N N  G  GGG   !            |
|           WW  WW  A    A  R   R   N   NN  II  N   NN  G    G                |
|           W    W  A    A  R    R  N    N  II  N    N   GGGG   !!!           |
|                                                                             |
|     For optimal performance we recommend to set                             |
|       NCORE = 4 - approx SQRT(number of cores).                             |
|     NCORE specifies how many cores store one orbital (NPAR=cpu/NCORE).      |
|     This setting can greatly improve the performance of VASP for DFT.       |
|     The default, NCORE=1 might be grossly inefficient on modern             |
|     multi-core architectures or massively parallel machines. Do your        |
|     own testing!!!!                                                         |
|     Unfortunately you need to use the default for GW and RPA                |
|     calculations (for HF NCORE is supported but not extensively tested      |
|     yet).                                                                   |
|                                                                             |
 -----------------------------------------------------------------------------

 -----------------------------------------------------------------------------
|                                                                             |
|               ----> ADVICE to this user running VASP <----                  |
|                                                                             |
|     You have a (more or less) 'large supercell' and for larger cells it     |
|     might be more efficient to use real-space projection operators.         |
|     Therefore, try LREAL= Auto in the INCAR file.                           |
|     Mind: For very accurate calculation, you might also keep the            |
|     reciprocal projection scheme (i.e. LREAL=.FALSE.).                      |
|                                                                             |
 -----------------------------------------------------------------------------

 LDA part: xc-table for Pade appr. of Perdew
 POSCAR, INCAR and KPOINTS ok, starting setup
 FFT: planning ...
 WAVECAR not read
 WARNING: random wavefunctions but no delay for mixing, default for NELMDL
 entering main loop
       N       E                     dE             d eps       ncg     rms          rms(c)
DAV:   1     0.136830772135E+05    0.13683E+05   -0.40705E+05  9380   0.180E+03
DAV:   2     0.145984509752E+04   -0.12223E+05   -0.11986E+05  9280   0.612E+02
DAV:   3    -0.319831086999E+03   -0.17797E+04   -0.16887E+04 13740   0.206E+02
DAV:   4    -0.682670452355E+03   -0.36284E+03   -0.35557E+03 13820   0.721E+01
DAV:   5    -0.717575118935E+03   -0.34905E+02   -0.34610E+02 14660   0.206E+01    0.769E+01
DAV:   6    -0.637754786586E+03    0.79820E+02   -0.35024E+02 12100   0.446E+01    0.254E+01
DAV:   7    -0.816339084529E+03   -0.17858E+03   -0.45234E+02 13940   0.533E+01    0.976E+01
DAV:   8    -0.737026967780E+03    0.79312E+02   -0.70149E+02 13740   0.371E+01    0.763E+01
DAV:   9    -0.629548966444E+03    0.10748E+03   -0.30815E+02 13860   0.232E+01    0.183E+01
DAV:  10    -0.635381393099E+03   -0.58324E+01   -0.12340E+02 13580   0.188E+01    0.176E+01
DAV:  11    -0.648966111236E+03   -0.13585E+02   -0.47140E+01 14420   0.215E+01    0.312E+01
DAV:  12    -0.633403370592E+03    0.15563E+02   -0.44098E+01 13920   0.123E+01    0.108E+01
DAV:  13    -0.634611309308E+03   -0.12079E+01   -0.17198E+01 12640   0.113E+01    0.112E+01
DAV:  14    -0.633869851289E+03    0.74146E+00   -0.11441E+01 12860   0.924E+00    0.671E+00
DAV:  15    -0.633521255483E+03    0.34860E+00   -0.60076E+00 12840   0.774E+00    0.440E+00
DAV:  16    -0.633442225013E+03    0.79030E-01   -0.25757E+00 13180   0.583E+00    0.387E+00
DAV:  17    -0.633182948834E+03    0.25928E+00   -0.97941E-01 13500   0.367E+00    0.168E+00
DAV:  18    -0.633187096405E+03   -0.41476E-02   -0.31587E-01 13420   0.168E+00    0.125E+00
DAV:  19    -0.633183517364E+03    0.35790E-02   -0.10171E-01 12500   0.108E+00    0.784E-01
DAV:  20    -0.633180162697E+03    0.33547E-02   -0.74153E-02 12220   0.102E+00    0.622E-01
DAV:  21    -0.633174104311E+03    0.60584E-02   -0.31321E-02 12560   0.633E-01    0.327E-01
DAV:  22    -0.633173573416E+03    0.53089E-03   -0.10102E-02 14340   0.331E-01    0.216E-01
DAV:  23    -0.633173488133E+03    0.85284E-04   -0.39964E-03 12520   0.208E-01    0.122E-01
DAV:  24    -0.633173547050E+03   -0.58917E-04   -0.22541E-03 12200   0.167E-01    0.114E-01
DAV:  25    -0.633173580156E+03   -0.33106E-04   -0.14257E-03 12440   0.122E-01    0.999E-02
DAV:  26    -0.633173478677E+03    0.10148E-03   -0.83189E-04 12200   0.105E-01    0.571E-02
DAV:  27    -0.633173488739E+03   -0.10062E-04   -0.39263E-04 12260   0.683E-02    0.479E-02
DAV:  28    -0.633173465093E+03    0.23646E-04   -0.18021E-04 11060   0.490E-02    0.276E-02
DAV:  29    -0.633173462327E+03    0.27659E-05   -0.47027E-05  9560   0.232E-02
   1 F= -.63317346E+03 E0= -.63311831E+03  d E =-.110295E+00
 writing wavefunctions
