unknown system                          
           1
     5.110600    0.000000    0.000000
     0.000000    9.811800    0.000000
     0.000000    0.000000   35.150249
   Ti
    80
Direct configuration=     1
   0.24954187  0.38816901  0.02235136
   0.75045813  0.38816901  0.97764864
   0.74954187  0.88816901  0.02235136
   0.25045813  0.88816901  0.97764864
   0.70651045  0.44384065  0.07602279
   0.29348955  0.44384065  0.92397720
   0.20651045  0.94384065  0.07602279
   0.79348955  0.94384065  0.92397720
   0.71776979  0.99216730  0.12532051
   0.28223021  0.99216730  0.87467949
   0.21776978  0.49216730  0.12532051
   0.78223021  0.49216730  0.87467949
   0.21304879  0.03618524  0.17442344
   0.78695121  0.03618524  0.82557656
   0.71304879  0.53618524  0.17442344
   0.28695121  0.53618524  0.82557656
   0.71208112  0.08118520  0.22518329
   0.28791888  0.08118520  0.77481671
   0.21208112  0.58118520  0.22518329
   0.78791888  0.58118520  0.77481671
   0.21229334  0.12750771  0.27487395
   0.78770666  0.12750771  0.72512605
   0.71229335  0.62750771  0.27487395
   0.28770665  0.62750771  0.72512605
   0.71330011  0.17245249  0.32558374
   0.28669989  0.17245249  0.67441626
   0.21330011  0.67245249  0.32558374
   0.78669989  0.67245249  0.67441626
   0.21804449  0.21637897  0.37472712
   0.78195551  0.21637897  0.62527288
   0.71804449  0.71637897  0.37472712
   0.28195551  0.71637897  0.62527288
   0.70704138  0.26463768  0.42399732
   0.29295861  0.26463768  0.57600268
   0.20704138  0.76463768  0.42399732
   0.79295862  0.76463768  0.57600268
   0.24957637  0.32024314  0.47761058
   0.75042363  0.32024314  0.52238942
   0.74957637  0.82024314  0.47761058
   0.25042363  0.82024314  0.52238942
   0.53725163  0.16398770  0.04992851
   0.46274837  0.16398770  0.95007149
   0.03725163  0.66398770  0.04992851
   0.96274837  0.66398770  0.95007149
   0.04600185  0.22271717  0.09924400
   0.95399815  0.22271717  0.90075600
   0.54600185  0.72271717  0.09924400
   0.45399815  0.72271717  0.90075600
   0.54376360  0.26342256  0.14987108
   0.45623640  0.26342256  0.85012892
   0.04376360  0.76342256  0.14987108
   0.95623640  0.76342256  0.85012892
   0.04494167  0.30866302  0.19965566
   0.95505833  0.30866302  0.80034434
   0.54494167  0.80866302  0.19965566
   0.45505833  0.80866302  0.80034434
   0.54746429  0.35440036  0.25002271
   0.45253571  0.35440036  0.74997729
   0.04746429  0.85440036  0.25002271
   0.95253571  0.85440036  0.74997729
   0.04508126  0.39999196  0.30040701
   0.95491874  0.39999196  0.69959299
   0.54508126  0.89999196  0.30040701
   0.45491874  0.89999196  0.69959299
   0.54396147  0.44514518  0.35016853
   0.45603853  0.44514518  0.64983147
   0.04396147  0.94514518  0.35016853
   0.95603853  0.94514518  0.64983147
   0.54628004  0.98588410  0.40075615
   0.45371995  0.98588410  0.59924385
   0.04628004  0.48588410  0.40075615
   0.95371995  0.48588410  0.59924385
   0.03752626  0.04438252  0.45007950
   0.96247374  0.04438252  0.54992050
   0.53752626  0.54438252  0.45007950
   0.46247374  0.54438252  0.54992050
   0.00000000  0.13081301  0.00000000
   0.50000000  0.63081301  0.00000000
   0.50000000  0.07767299  0.50000000
   0.00000000  0.57767299  0.50000000
Direct configuration=     2
   0.24644041  0.38889788  0.02250563
   0.75355959  0.38889788  0.97749437
   0.74644041  0.88889788  0.02250563
   0.25355959  0.88889788  0.97749437
   0.70145568  0.44319739  0.07597186
   0.29854432  0.44319739  0.92402814
   0.20145568  0.94319739  0.07597186
   0.79854432  0.94319739  0.92402814
   0.71407624  0.99223687  0.12533862
   0.28592376  0.99223687  0.87466138
   0.21407624  0.49223687  0.12533862
   0.78592376  0.49223687  0.87466138
   0.20895485  0.03602958  0.17444724
   0.79104515  0.03602958  0.82555276
   0.70895485  0.53602958  0.17444724
   0.29104515  0.53602958  0.82555276
   0.70820508  0.08118693  0.22519615
   0.29179492  0.08118693  0.77480385
   0.20820508  0.58118693  0.22519615
   0.79179492  0.58118693  0.77480385
   0.20841582  0.12751168  0.27486263
   0.79158418  0.12751168  0.72513737
   0.70841582  0.62751169  0.27486263
   0.29158418  0.62751169  0.72513737
   0.70920821  0.17260228  0.32556381
   0.29079179  0.17260228  0.67443619
   0.20920821  0.67260228  0.32556381
   0.79079179  0.67260228  0.67443619
   0.21435051  0.21631546  0.37470942
   0.78564949  0.21631546  0.62529058
   0.71435051  0.71631546  0.37470942
   0.28564949  0.71631546  0.62529058
   0.70198524  0.26528539  0.42404978
   0.29801476  0.26528539  0.57595022
   0.20198524  0.76528539  0.42404978
   0.79801476  0.76528539  0.57595022
   0.24647042  0.31952056  0.47745860
   0.75352958  0.31952056  0.52254140
   0.74647042  0.81952056  0.47745860
   0.25352958  0.81952056  0.52254140
   0.54077925  0.16384463  0.04995360
   0.45922075  0.16384463  0.95004640
   0.04077925  0.66384463  0.04995360
   0.95922075  0.66384463  0.95004640
   0.05041377  0.22197723  0.09927052
   0.94958623  0.22197723  0.90072948
   0.55041378  0.72197723  0.09927052
   0.44958622  0.72197723  0.90072948
   0.54769099  0.26366505  0.14991503
   0.45230901  0.26366505  0.85008497
   0.04769099  0.76366505  0.14991503
   0.95230901  0.76366505  0.85008497
   0.04887499  0.30857656  0.19964948
   0.95112501  0.30857656  0.80035052
   0.54887499  0.80857656  0.19964948
   0.45112501  0.80857656  0.80035052
   0.55141567  0.35439265  0.25002323
   0.44858433  0.35439265  0.74997676
   0.05141567  0.85439265  0.25002323
   0.94858433  0.85439265  0.74997676
   0.04900668  0.40008070  0.30041263
   0.95099332  0.40008070  0.69958737
   0.54900668  0.90008070  0.30041263
   0.45099332  0.90008070  0.69958737
   0.54787639  0.44491042  0.35012489
   0.45212361  0.44491042  0.64987511
   0.04787639  0.94491042  0.35012489
   0.95212361  0.94491042  0.64987511
   0.55068101  0.98660955  0.40073160
   0.44931898  0.98660955  0.59926840
   0.05068101  0.48660955  0.40073160
   0.94931898  0.48660955  0.59926840
   0.04103864  0.04453086  0.45005553
   0.95896136  0.04453086  0.54994447
   0.54103864  0.54453086  0.45005553
   0.45896136  0.54453086  0.54994447
   0.00000000  0.13144224  0.00000000
   0.50000000  0.63144224  0.00000000
   0.50000000  0.07702442  0.50000000
   0.00000000  0.57702442  0.50000000
Direct configuration=     3
   0.23713602  0.39108448  0.02296843
   0.76286398  0.39108448  0.97703157
   0.73713602  0.89108448  0.02296843
   0.26286398  0.89108448  0.97703157
   0.68629137  0.44126758  0.07581905
   0.31370863  0.44126758  0.92418095
   0.18629137  0.94126758  0.07581905
   0.81370863  0.94126758  0.92418095
   0.70299559  0.99244556  0.12539293
   0.29700441  0.99244556  0.87460707
   0.20299559  0.49244556  0.12539293
   0.79700441  0.49244556  0.87460707
   0.19667304  0.03556261  0.17451863
   0.80332696  0.03556261  0.82548137
   0.69667304  0.53556261  0.17451863
   0.30332695  0.53556261  0.82548137
   0.69657697  0.08119213  0.22523472
   0.30342303  0.08119213  0.77476528
   0.19657697  0.58119213  0.22523472
   0.80342303  0.58119213  0.77476528
   0.19678325  0.12752360  0.27482866
   0.80321675  0.12752360  0.72517134
   0.69678325  0.62752361  0.27482866
   0.30321675  0.62752361  0.72517134
   0.69693252  0.17305165  0.32550404
   0.30306748  0.17305165  0.67449596
   0.19693251  0.67305165  0.32550404
   0.80306748  0.67305165  0.67449596
   0.20326857  0.21612495  0.37465632
   0.79673143  0.21612495  0.62534368
   0.70326857  0.71612495  0.37465632
   0.29673143  0.71612495  0.62534368
   0.68681681  0.26722854  0.42420717
   0.31318319  0.26722854  0.57579283
   0.18681681  0.76722854  0.42420717
   0.81318319  0.76722854  0.57579283
   0.23715258  0.31735279  0.47700265
   0.76284741  0.31735279  0.52299735
   0.73715259  0.81735279  0.47700265
   0.26284741  0.81735279  0.52299735
   0.55136211  0.16341541  0.05002888
   0.44863789  0.16341541  0.94997112
   0.05136211  0.66341541  0.05002888
   0.94863789  0.66341541  0.94997112
   0.06364956  0.21975739  0.09935010
   0.93635044  0.21975739  0.90064990
   0.56364956  0.71975739  0.09935010
   0.43635044  0.71975739  0.90064990
   0.55947315  0.26439251  0.15004687
   0.44052685  0.26439251  0.84995313
   0.05947315  0.76439251  0.15004687
   0.94052685  0.76439251  0.84995313
   0.06067493  0.30831718  0.19963093
   0.93932506  0.30831718  0.80036907
   0.56067494  0.80831718  0.19963093
   0.43932506  0.80831718  0.80036907
   0.56326983  0.35436950  0.25002481
   0.43673016  0.35436950  0.74997519
   0.06326983  0.85436950  0.25002481
   0.93673017  0.85436950  0.74997519
   0.06078294  0.40034693  0.30042949
   0.93921706  0.40034693  0.69957051
   0.56078294  0.90034693  0.30042949
   0.43921706  0.90034693  0.69957051
   0.55962114  0.44420614  0.34999397
   0.44037886  0.44420614  0.65000603
   0.05962114  0.94420614  0.34999397
   0.94037886  0.94420614  0.65000603
   0.56388392  0.98878588  0.40065795
   0.43611607  0.98878588  0.59934205
   0.06388392  0.48878588  0.40065795
   0.93611607  0.48878588  0.59934205
   0.05157580  0.04497587  0.44998362
   0.94842420  0.04497587  0.55001637
   0.55157579  0.54497587  0.44998362
   0.44842420  0.54497587  0.55001637
   0.00000000  0.13332991  0.00000000
   0.50000000  0.63332991  0.00000000
   0.50000000  0.07507869  0.50000000
   0.00000000  0.57507869  0.50000000
Direct configuration=     4
   0.23271240  0.39212406  0.02318846
   0.76728760  0.39212406  0.97681154
   0.73271240  0.89212406  0.02318846
   0.26728760  0.89212406  0.97681154
   0.67908176  0.44035008  0.07574640
   0.32091824  0.44035008  0.92425360
   0.17908175  0.94035008  0.07574640
   0.82091824  0.94035008  0.92425360
   0.69772749  0.99254478  0.12541876
   0.30227251  0.99254478  0.87458124
   0.19772749  0.49254478  0.12541876
   0.80227251  0.49254478  0.87458124
   0.19083387  0.03534059  0.17455258
   0.80916613  0.03534059  0.82544742
   0.69083387  0.53534059  0.17455258
   0.30916613  0.53534059  0.82544742
   0.69104858  0.08119460  0.22525305
   0.30895142  0.08119460  0.77474695
   0.19104858  0.58119460  0.22525305
   0.80895142  0.58119460  0.77474695
   0.19125273  0.12752927  0.27481251
   0.80874727  0.12752927  0.72518749
   0.69125273  0.62752927  0.27481251
   0.30874727  0.62752927  0.72518749
   0.69109624  0.17326529  0.32547563
   0.30890376  0.17326529  0.67452437
   0.19109624  0.67326529  0.32547563
   0.80890376  0.67326529  0.67452437
   0.19799985  0.21603437  0.37463108
   0.80200015  0.21603437  0.62536892
   0.69799985  0.71603437  0.37463108
   0.30200015  0.71603437  0.62536892
   0.67960523  0.26815237  0.42428199
   0.32039477  0.26815237  0.57571801
   0.17960523  0.76815237  0.42428199
   0.82039477  0.76815237  0.57571801
   0.23272258  0.31632216  0.47678588
   0.76727742  0.31632216  0.52321412
   0.73272258  0.81632216  0.47678588
   0.26727742  0.81632216  0.52321412
   0.55639355  0.16321134  0.05006468
   0.44360645  0.16321134  0.94993532
   0.05639355  0.66321134  0.05006468
   0.94360645  0.66321134  0.94993532
   0.06994229  0.21870201  0.09938793
   0.93005771  0.21870201  0.90061207
   0.56994229  0.71870201  0.09938793
   0.43005771  0.71870201  0.90061207
   0.56507478  0.26473837  0.15010955
   0.43492522  0.26473837  0.84989045
   0.06507478  0.76473837  0.15010955
   0.93492522  0.76473837  0.84989045
   0.06628502  0.30819386  0.19962212
   0.93371498  0.30819386  0.80037788
   0.56628502  0.80819386  0.19962212
   0.43371498  0.80819386  0.80037788
   0.56890569  0.35435849  0.25002556
   0.43109430  0.35435849  0.74997444
   0.06890570  0.85435849  0.25002556
   0.93109430  0.85435849  0.74997444
   0.06638176  0.40047350  0.30043751
   0.93361823  0.40047350  0.69956249
   0.56638176  0.90047350  0.30043751
   0.43361823  0.90047350  0.69956249
   0.56520498  0.44387131  0.34993173
   0.43479501  0.44387131  0.65006827
   0.06520498  0.94387131  0.34993173
   0.93479502  0.94387131  0.65006827
   0.57016103  0.98982058  0.40062294
   0.42983897  0.98982058  0.59937706
   0.07016102  0.48982058  0.40062294
   0.92983897  0.48982058  0.59937706
   0.05658551  0.04518744  0.44994944
   0.94341449  0.04518744  0.55005056
   0.55658551  0.54518744  0.44994944
   0.44341449  0.54518744  0.55005056
   0.00000000  0.13422737  0.00000000
   0.50000000  0.63422737  0.00000000
   0.50000000  0.07415363  0.50000000
   0.00000000  0.57415363  0.50000000
Direct configuration=     5
   0.23255614  0.39216078  0.02319624
   0.76744386  0.39216078  0.97680376
   0.73255614  0.89216078  0.02319624
   0.26744385  0.89216078  0.97680376
   0.67882708  0.44031768  0.07574383
   0.32117292  0.44031768  0.92425617
   0.17882708  0.94031768  0.07574383
   0.82117291  0.94031768  0.92425617
   0.69754140  0.99254829  0.12541967
   0.30245860  0.99254829  0.87458033
   0.19754140  0.49254829  0.12541967
   0.80245860  0.49254829  0.87458033
   0.19062761  0.03533275  0.17455378
   0.80937239  0.03533275  0.82544622
   0.69062760  0.53533275  0.17455378
   0.30937239  0.53533275  0.82544622
   0.69085330  0.08119468  0.22525370
   0.30914670  0.08119468  0.77474630
   0.19085330  0.58119468  0.22525370
   0.80914670  0.58119468  0.77474630
   0.19105738  0.12752947  0.27481194
   0.80894262  0.12752947  0.72518806
   0.69105738  0.62752947  0.27481194
   0.30894262  0.62752947  0.72518806
   0.69089008  0.17327284  0.32547462
   0.30910992  0.17327284  0.67452538
   0.19089008  0.67327284  0.32547462
   0.80910992  0.67327284  0.67452538
   0.19781374  0.21603117  0.37463019
   0.80218626  0.21603117  0.62536981
   0.69781374  0.71603117  0.37463019
   0.30218626  0.71603117  0.62536981
   0.67935049  0.26818501  0.42428464
   0.32064951  0.26818501  0.57571536
   0.17935049  0.76818501  0.42428464
   0.82064951  0.76818501  0.57571536
   0.23256609  0.31628576  0.47677822
   0.76743391  0.31628576  0.52322178
   0.73256609  0.81628576  0.47677822
   0.26743391  0.81628576  0.52322178
   0.55657128  0.16320413  0.05006594
   0.44342872  0.16320413  0.94993406
   0.05657128  0.66320413  0.05006594
   0.94342872  0.66320413  0.94993406
   0.07016457  0.21866473  0.09938926
   0.92983543  0.21866473  0.90061074
   0.57016457  0.71866473  0.09938926
   0.42983543  0.71866473  0.90061074
   0.56527265  0.26475059  0.15011177
   0.43472735  0.26475059  0.84988823
   0.06527265  0.76475059  0.15011177
   0.93472735  0.76475059  0.84988823
   0.06648319  0.30818950  0.19962181
   0.93351681  0.30818950  0.80037819
   0.56648319  0.80818950  0.19962181
   0.43351681  0.80818950  0.80037819
   0.56910477  0.35435810  0.25002559
   0.43089522  0.35435810  0.74997441
   0.06910478  0.85435810  0.25002559
   0.93089522  0.85435810  0.74997441
   0.06657954  0.40047797  0.30043780
   0.93342046  0.40047797  0.69956220
   0.56657954  0.90047797  0.30043780
   0.43342046  0.90047797  0.69956220
   0.56540223  0.44385948  0.34992953
   0.43459777  0.44385948  0.65007046
   0.06540223  0.94385948  0.34992953
   0.93459777  0.94385948  0.65007046
   0.57038276  0.98985712  0.40062170
   0.42961724  0.98985712  0.59937830
   0.07038275  0.48985712  0.40062170
   0.92961724  0.48985712  0.59937830
   0.05676247  0.04519491  0.44994823
   0.94323753  0.04519491  0.55005177
   0.55676247  0.54519491  0.44994823
   0.44323753  0.54519491  0.55005177
   0.00000000  0.13425907  0.00000000
   0.50000000  0.63425907  0.00000000
   0.50000000  0.07412095  0.50000000
   0.00000000  0.57412095  0.50000000
Direct configuration=     6
   0.23382281  0.39108101  0.02342703
   0.76617719  0.39108101  0.97657297
   0.73382281  0.89108101  0.02342703
   0.26617719  0.89108101  0.97657297
   0.67877960  0.43987617  0.07571406
   0.32122040  0.43987617  0.92428594
   0.17877960  0.93987617  0.07571406
   0.82122040  0.93987617  0.92428594
   0.69619858  0.99217508  0.12553902
   0.30380142  0.99217508  0.87446098
   0.19619858  0.49217508  0.12553902
   0.80380141  0.49217508  0.87446098
   0.19003469  0.03561171  0.17457530
   0.80996531  0.03561171  0.82542470
   0.69003469  0.53561171  0.17457530
   0.30996531  0.53561171  0.82542470
   0.69020402  0.08105453  0.22526004
   0.30979598  0.08105453  0.77473996
   0.19020402  0.58105453  0.22526004
   0.80979598  0.58105453  0.77473996
   0.19038956  0.12765776  0.27480278
   0.80961044  0.12765776  0.72519722
   0.69038956  0.62765776  0.27480278
   0.30961044  0.62765776  0.72519722
   0.69028484  0.17301235  0.32545557
   0.30971516  0.17301235  0.67454443
   0.19028484  0.67301235  0.32545557
   0.80971516  0.67301235  0.67454443
   0.19645642  0.21639780  0.37451044
   0.80354357  0.21639780  0.62548956
   0.69645642  0.71639780  0.37451044
   0.30354357  0.71639780  0.62548956
   0.67927919  0.26862523  0.42431490
   0.32072081  0.26862523  0.57568510
   0.17927919  0.76862523  0.42431490
   0.82072081  0.76862523  0.57568510
   0.23383033  0.31734998  0.47655100
   0.76616966  0.31734998  0.52344900
   0.73383033  0.81734998  0.47655100
   0.26616967  0.81734998  0.52344900
   0.55538696  0.16251482  0.05017326
   0.44461304  0.16251482  0.94982674
   0.05538695  0.66251482  0.05017326
   0.94461304  0.66251482  0.94982674
   0.07086418  0.21869430  0.09949085
   0.92913582  0.21869430  0.90050915
   0.57086418  0.71869430  0.09949085
   0.42913582  0.71869430  0.90050915
   0.56598248  0.26449446  0.15019909
   0.43401752  0.26449446  0.84980091
   0.06598248  0.76449446  0.15019909
   0.93401752  0.76449446  0.84980091
   0.06696548  0.30833798  0.19962617
   0.93303452  0.30833798  0.80037383
   0.56696548  0.80833798  0.19962617
   0.43303452  0.80833798  0.80037383
   0.57013666  0.35436227  0.25002560
   0.42986333  0.35436227  0.74997440
   0.07013666  0.85436227  0.25002560
   0.92986334  0.85436227  0.74997440
   0.06705123  0.40032481  0.30043229
   0.93294877  0.40032481  0.69956771
   0.56705123  0.90032481  0.30043229
   0.43294877  0.90032481  0.69956771
   0.56612214  0.44410629  0.34984334
   0.43387786  0.44410629  0.65015666
   0.06612214  0.94410629  0.34984334
   0.93387786  0.94410629  0.65015666
   0.57106505  0.98984052  0.40052316
   0.42893495  0.98984052  0.59947684
   0.07106505  0.48984052  0.40052316
   0.92893495  0.48984052  0.59947684
   0.05555909  0.04588544  0.44984121
   0.94444091  0.04588544  0.55015879
   0.55555908  0.54588544  0.44984121
   0.44444091  0.54588544  0.55015879
   0.00000000  0.13328484 -0.00000000
   0.50000000  0.63328484 -0.00000000
   0.50000000  0.07512014  0.50000000
   0.00000000  0.57512014  0.50000000
Direct configuration=     7
   0.23762279  0.38784171  0.02411943
   0.76237721  0.38784171  0.97588057
   0.73762279  0.88784171  0.02411943
   0.26237721  0.88784171  0.97588057
   0.67863714  0.43855164  0.07562474
   0.32136286  0.43855164  0.92437525
   0.17863714  0.93855164  0.07562474
   0.82136286  0.93855164  0.92437525
   0.69217014  0.99105544  0.12589708
   0.30782986  0.99105544  0.87410292
   0.19217014  0.49105544  0.12589708
   0.80782986  0.49105544  0.87410292
   0.18825595  0.03644859  0.17463988
   0.81174405  0.03644859  0.82536012
   0.68825595  0.53644859  0.17463988
   0.31174405  0.53644859  0.82536012
   0.68825617  0.08063406  0.22527904
   0.31174382  0.08063406  0.77472096
   0.18825618  0.58063406  0.22527904
   0.81174382  0.58063406  0.77472096
   0.18838611  0.12804261  0.27477529
   0.81161389  0.12804261  0.72522471
   0.68838611  0.62804261  0.27477529
   0.31161389  0.62804261  0.72522471
   0.68846912  0.17223087  0.32539842
   0.31153088  0.17223087  0.67460157
   0.18846912  0.67223087  0.32539842
   0.81153088  0.67223087  0.67460157
   0.19238448  0.21749768  0.37415118
   0.80761552  0.21749768  0.62584882
   0.69238448  0.71749768  0.37415118
   0.30761551  0.71749768  0.62584882
   0.67906529  0.26994589  0.42440571
   0.32093471  0.26994589  0.57559429
   0.17906529  0.76994589  0.42440571
   0.82093471  0.76994589  0.57559429
   0.23762306  0.32054263  0.47586935
   0.76237694  0.32054263  0.52413065
   0.73762306  0.82054263  0.47586935
   0.26237694  0.82054263  0.52413065
   0.55183399  0.16044688  0.05049521
   0.44816601  0.16044688  0.94950479
   0.05183399  0.66044688  0.05049521
   0.94816601  0.66044688  0.94950479
   0.07296300  0.21878300  0.09979562
   0.92703700  0.21878300  0.90020438
   0.57296300  0.71878300  0.09979562
   0.42703700  0.71878300  0.90020438
   0.56811195  0.26372606  0.15046104
   0.43188805  0.26372606  0.84953896
   0.06811195  0.76372606  0.15046104
   0.93188805  0.76372606  0.84953896
   0.06841234  0.30878341  0.19963928
   0.93158766  0.30878341  0.80036072
   0.56841234  0.80878341  0.19963928
   0.43158766  0.80878341  0.80036072
   0.57323233  0.35437479  0.25002563
   0.42676767  0.35437479  0.74997437
   0.07323233  0.85437479  0.25002563
   0.92676767  0.85437479  0.74997437
   0.06846631  0.39986530  0.30041576
   0.93153369  0.39986530  0.69958424
   0.56846631  0.89986530  0.30041576
   0.43153369  0.89986530  0.69958424
   0.56828189  0.44484673  0.34958477
   0.43171811  0.44484673  0.65041523
   0.06828189  0.94484673  0.34958477
   0.93171811  0.94484673  0.65041523
   0.57311192  0.98979070  0.40022753
   0.42688808  0.98979070  0.59977247
   0.07311192  0.48979070  0.40022753
   0.92688808  0.48979070  0.59977247
   0.05194893  0.04795703  0.44952014
   0.94805107  0.04795703  0.55047986
   0.55194893  0.54795703  0.44952014
   0.44805107  0.54795703  0.55047986
   0.00000000  0.13036217 -0.00000000
   0.50000000  0.63036217 -0.00000000
   0.50000000  0.07811770  0.50000000
   0.00000000  0.57811770  0.50000000
Direct configuration=     8
   0.23679617  0.38613522  0.02416439
   0.76320383  0.38613522  0.97583561
   0.73679617  0.88613522  0.02416439
   0.26320382  0.88613522  0.97583561
   0.67859225  0.43744253  0.07564599
   0.32140775  0.43744253  0.92435401
   0.17859225  0.93744253  0.07564599
   0.82140775  0.93744253  0.92435401
   0.69133099  0.99067438  0.12611012
   0.30866901  0.99067438  0.87388988
   0.19133099  0.49067438  0.12611012
   0.80866901  0.49067438  0.87388988
   0.18827250  0.03648034  0.17470854
   0.81172750  0.03648034  0.82529146
   0.68827250  0.53648034  0.17470854
   0.31172750  0.53648034  0.82529146
   0.68818146  0.08069417  0.22528568
   0.31181853  0.08069417  0.77471432
   0.18818146  0.58069417  0.22528568
   0.81181854  0.58069417  0.77471432
   0.18828054  0.12798503  0.27476714
   0.81171946  0.12798503  0.72523286
   0.68828054  0.62798503  0.27476714
   0.31171946  0.62798503  0.72523286
   0.68846402  0.17218647  0.32532984
   0.31153598  0.17218647  0.67467016
   0.18846402  0.67218647  0.32532984
   0.81153598  0.67218647  0.67467016
   0.19152080  0.21788660  0.37393644
   0.80847920  0.21788660  0.62606356
   0.69152080  0.71788660  0.37393644
   0.30847920  0.71788660  0.62606356
   0.67898117  0.27105021  0.42438532
   0.32101883  0.27105021  0.57561468
   0.17898117  0.77105021  0.42438532
   0.82101883  0.77105021  0.57561468
   0.23679799  0.32225743  0.47582822
   0.76320201  0.32225743  0.52417178
   0.73679799  0.82225743  0.47582822
   0.26320201  0.82225743  0.52417178
   0.55203348  0.15895589  0.05064275
   0.44796652  0.15895589  0.94935725
   0.05203348  0.65895589  0.05064275
   0.94796652  0.65895589  0.94935725
   0.07319292  0.21790545  0.09988759
   0.92680708  0.21790545  0.90011241
   0.57319292  0.71790545  0.09988759
   0.42680708  0.71790545  0.90011241
   0.56822219  0.26381302  0.15066117
   0.43177781  0.26381302  0.84933883
   0.06822219  0.76381302  0.15066117
   0.93177781  0.76381302  0.84933883
   0.06813030  0.30884883  0.19965033
   0.93186969  0.30884883  0.80034967
   0.56813031  0.80884883  0.19965033
   0.43186969  0.80884883  0.80034967
   0.57373229  0.35436579  0.25002606
   0.42626771  0.35436579  0.74997394
   0.07373229  0.85436579  0.25002606
   0.92626771  0.85436579  0.74997394
   0.06818159  0.39980194  0.30040361
   0.93181841  0.39980194  0.69959639
   0.56818159  0.89980194  0.30040361
   0.43181841  0.89980194  0.69959639
   0.56838684  0.44476694  0.34938510
   0.43161316  0.44476694  0.65061490
   0.06838684  0.94476694  0.34938510
   0.93161316  0.94476694  0.65061490
   0.57330767  0.99066759  0.40013674
   0.42669232  0.99066759  0.59986326
   0.07330767  0.49066759  0.40013674
   0.92669233  0.49066759  0.59986326
   0.05212373  0.04945970  0.44937368
   0.94787627  0.04945970  0.55062632
   0.55212372  0.54945970  0.44937368
   0.44787627  0.54945970  0.55062632
   0.00000000  0.12885254 -0.00000000
   0.50000000  0.62885254 -0.00000000
   0.50000000  0.07960237  0.50000000
   0.00000000  0.57960237  0.50000000
Direct configuration=     9
   0.23431632  0.38101574  0.02429927
   0.76568368  0.38101574  0.97570073
   0.73431632  0.88101574  0.02429927
   0.26568368  0.88101574  0.97570073
   0.67845755  0.43411519  0.07570971
   0.32154245  0.43411519  0.92429029
   0.17845755  0.93411519  0.07570971
   0.82154244  0.93411519  0.92429029
   0.68881352  0.98953120  0.12674925
   0.31118648  0.98953120  0.87325075
   0.18881352  0.48953120  0.12674925
   0.81118648  0.48953120  0.87325075
   0.18832213  0.03657559  0.17491452
   0.81167787  0.03657559  0.82508548
   0.68832213  0.53657559  0.17491452
   0.31167787  0.53657559  0.82508548
   0.68795733  0.08087450  0.22530558
   0.31204267  0.08087450  0.77469442
   0.18795733  0.58087450  0.22530558
   0.81204267  0.58087450  0.77469442
   0.18796383  0.12781228  0.27474268
   0.81203617  0.12781228  0.72525732
   0.68796384  0.62781228  0.27474268
   0.31203616  0.62781228  0.72525732
   0.68844872  0.17205324  0.32512410
   0.31155128  0.17205324  0.67487590
   0.18844872  0.67205324  0.32512410
   0.81155128  0.67205324  0.67487590
   0.18892975  0.21905334  0.37329221
   0.81107024  0.21905334  0.62670779
   0.68892976  0.71905334  0.37329221
   0.31107024  0.71905334  0.62670779
   0.67872881  0.27436318  0.42432416
   0.32127119  0.27436318  0.57567584
   0.17872881  0.77436318  0.42432416
   0.82127119  0.77436318  0.57567584
   0.23432278  0.32740184  0.47570482
   0.76567722  0.32740184  0.52429518
   0.73432278  0.82740184  0.47570482
   0.26567722  0.82740184  0.52429518
   0.55263193  0.15448295  0.05108540
   0.44736806  0.15448295  0.94891460
   0.05263193  0.65448295  0.05108540
   0.94736806  0.65448295  0.94891460
   0.07388269  0.21527278  0.10016352
   0.92611731  0.21527278  0.89983648
   0.57388269  0.71527278  0.10016352
   0.42611731  0.71527278  0.89983648
   0.56855292  0.26407390  0.15126156
   0.43144708  0.26407390  0.84873844
   0.06855292  0.76407390  0.15126156
   0.93144708  0.76407390  0.84873844
   0.06728420  0.30904510  0.19968347
   0.93271580  0.30904510  0.80031652
   0.56728420  0.80904510  0.19968347
   0.43271580  0.80904510  0.80031652
   0.57523217  0.35433880  0.25002737
   0.42476783  0.35433880  0.74997262
   0.07523217  0.85433880  0.25002737
   0.92476783  0.85433880  0.74997262
   0.06732744  0.39961184  0.30036716
   0.93267256  0.39961184  0.69963284
   0.56732744  0.89961184  0.30036716
   0.43267256  0.89961184  0.69963284
   0.56870171  0.44452756  0.34878610
   0.43129829  0.44452756  0.65121390
   0.06870171  0.94452756  0.34878610
   0.93129829  0.94452756  0.65121390
   0.57389492  0.99329823  0.39986439
   0.42610507  0.99329823  0.60013561
   0.07389492  0.49329823  0.39986439
   0.92610507  0.49329823  0.60013561
   0.05264810  0.05396770  0.44893428
   0.94735190  0.05396770  0.55106572
   0.55264810  0.55396770  0.44893428
   0.44735190  0.55396770  0.55106572
   0.00000000  0.12432364 -0.00000000
   0.50000000  0.62432364 -0.00000000
   0.50000000  0.08405640  0.50000000
   0.00000000  0.58405640  0.50000000
Direct configuration=    10
   0.22935660  0.37077679  0.02456903
   0.77064340  0.37077679  0.97543097
   0.72935660  0.87077679  0.02456903
   0.27064340  0.87077679  0.97543097
   0.67818817  0.42746050  0.07583716
   0.32181183  0.42746050  0.92416284
   0.17818817  0.92746050  0.07583716
   0.82181183  0.92746050  0.92416284
   0.68377860  0.98724484  0.12802751
   0.31622140  0.98724484  0.87197249
   0.18377860  0.48724484  0.12802751
   0.81622140  0.48724484  0.87197249
   0.18842140  0.03676608  0.17532649
   0.81157860  0.03676608  0.82467351
   0.68842139  0.53676608  0.17532649
   0.31157860  0.53676608  0.82467351
   0.68750906  0.08123516  0.22534538
   0.31249094  0.08123516  0.77465462
   0.18750906  0.58123516  0.22534538
   0.81249094  0.58123516  0.77465462
   0.18733042  0.12746680  0.27469377
   0.81266958  0.12746680  0.72530623
   0.68733042  0.62746680  0.27469377
   0.31266958  0.62746680  0.72530623
   0.68841812  0.17178680  0.32471262
   0.31158188  0.17178680  0.67528738
   0.18841812  0.67178680  0.32471262
   0.81158188  0.67178680  0.67528738
   0.18374766  0.22138683  0.37200375
   0.81625234  0.22138683  0.62799625
   0.68374766  0.72138683  0.37200375
   0.31625233  0.72138683  0.62799625
   0.67822408  0.28098912  0.42420183
   0.32177592  0.28098912  0.57579817
   0.17822408  0.78098912  0.42420183
   0.82177592  0.78098912  0.57579817
   0.22937236  0.33769065  0.47545802
   0.77062763  0.33769065  0.52454198
   0.72937236  0.83769065  0.47545802
   0.27062764  0.83769065  0.52454198
   0.55382885  0.14553705  0.05197069
   0.44617115  0.14553705  0.94802931
   0.05382885  0.64553705  0.05197069
   0.94617115  0.64553705  0.94802931
   0.07526222  0.21000744  0.10071537
   0.92473778  0.21000744  0.89928463
   0.57526222  0.71000744  0.10071537
   0.42473778  0.71000744  0.89928463
   0.56921438  0.26459566  0.15246234
   0.43078562  0.26459566  0.84753766
   0.06921438  0.76459566  0.15246234
   0.93078562  0.76459566  0.84753766
   0.06559198  0.30943763  0.19974977
   0.93440802  0.30943763  0.80025023
   0.56559198  0.80943763  0.19974977
   0.43440802  0.80943763  0.80025023
   0.57823193  0.35428480  0.25003000