unknown system                          
           1
    41.745250    0.000000    0.000000
     0.000000    5.110600    0.000000
     0.000000    0.000000    7.531000
   Ti
    80
Direct configuration=     1
   0.38068838  0.34578769  0.87269489
   0.38068838  0.65421231  0.37269489
   0.46035402  0.31897114  0.23131883
   0.46035402  0.68102886  0.73131883
   0.34589071  0.78487612  0.04496886
   0.34589071  0.21512388  0.54496886
   0.45729552  0.81702770  0.38011007
   0.45729552  0.18297231  0.88011007
   0.31788582  0.34564550  0.21112851
   0.31788582  0.65435450  0.71112851
   0.42302942  0.26205142  0.55291248
   0.42302942  0.73794858  0.05291248
   0.19299723  0.83416366  0.99384402
   0.19299723  0.16583634  0.49384402
   0.30320133  0.83369782  0.35859132
   0.30320133  0.16630218  0.85859132
   0.38858680  0.84608469  0.72746530
   0.38858680  0.15391531  0.22746530
   0.17867545  0.34537860  0.14113595
   0.17867545  0.65462140  0.64113595
   0.26973542  0.31846762  0.52224388
   0.26973542  0.68153238  0.02224388
   0.03871665  0.81710262  0.97365515
   0.03871665  0.18289738  0.47365515
   0.15035479  0.78324331  0.30792495
   0.15035479  0.21675669  0.80792495
   0.24832105  0.85065965  0.67576308
   0.24832105  0.14934035  0.17576308
   0.03613900  0.31950288  0.12228683
   0.03613900  0.68049712  0.62228683
   0.11543697  0.34605232  0.48063767
   0.11543697  0.65394768  0.98063767
   0.22654121  0.31708945  0.82983244
   0.22654121  0.68291055  0.32983245
   0.10793779  0.84601074  0.62578264
   0.10793779  0.15398927  0.12578264
   0.07322485  0.26078463  0.80043540
   0.07322485  0.73921537  0.30043540
   0.61541466  0.65393531  0.37301279
   0.61541466  0.34606469  0.87301279
   0.53611658  0.68047591  0.73149803
   0.53611658  0.31952409  0.23149803
   0.65032319  0.21655482  0.54559245
   0.65032319  0.78344518  0.04559245
   0.53870201  0.18289873  0.88015491
   0.53870201  0.81710127  0.38015491
   0.67860101  0.65458056  0.71226062
   0.67860101  0.34541944  0.21226062
   0.57320105  0.73914100  0.05326256
   0.57320105  0.26085900  0.55326256
   0.80317642  0.16627121  0.49479117
   0.80317642  0.83372879  0.99479117
   0.69296845  0.16587649  0.85955129
   0.69296845  0.83412351  0.35955129
   0.60788641  0.15395537  0.22788500
   0.60788641  0.84604463  0.72788500
   0.81781693  0.65441418  0.64224428
   0.81781693  0.34558582  0.14224428
   0.72650264  0.68269852  0.02347401
   0.72650264  0.31730148  0.52347401
   0.95730219  0.18297696  0.47370454
   0.95730219  0.81702304  0.97370454
   0.84586622  0.21534313  0.80854662
   0.84586622  0.78465687  0.30854662
   0.74823502  0.14931826  0.17744989
   0.74823502  0.85068174  0.67744989
   0.96033850  0.68103913  0.62246290
   0.96033850  0.31896087  0.12246290
   0.88068082  0.65419545  0.98094932
   0.88068082  0.34580455  0.48094932
   0.76970172  0.68170625  0.33104501
   0.76970172  0.31829375  0.83104501
   0.88853924  0.15394365  0.12618641
   0.88853924  0.84605635  0.62618641
   0.92301902  0.73806128  0.30078354
   0.92301902  0.26193872  0.80078354
   0.99808693  0.78189394  0.28927520
   0.99808693  0.21810606  0.78927520
   0.49807854  0.21803642  0.56457714
   0.49807854  0.78196358  0.06457714
Direct configuration=     2
   0.38069302  0.34648844  0.87117492
   0.38069302  0.65351156  0.37117492
   0.46025035  0.31845068  0.23240460
   0.46025035  0.68154932  0.73240460
   0.34619597  0.78458095  0.04478273
   0.34619597  0.21541905  0.54478273
   0.45720848  0.81856359  0.37924984
   0.45720848  0.18143641  0.87924984
   0.31774388  0.34401529  0.21187099
   0.31774388  0.65598471  0.71187099
   0.42318501  0.26130671  0.55304387
   0.42318501  0.73869329  0.05304387
   0.19318325  0.83559139  0.99471191
   0.19318325  0.16440861  0.49471191
   0.30300451  0.83509340  0.35777539
   0.30300451  0.16490660  0.85777539
   0.38855365  0.84538570  0.72911484
   0.38855365  0.15461430  0.22911484
   0.17881417  0.34377332  0.14034701
   0.17881417  0.65622668  0.64034701
   0.27016947  0.31876295  0.52211078
   0.27016947  0.68123705  0.02211078
   0.03879930  0.81860654  0.97450095
   0.03879930  0.18139346  0.47450095
   0.15006248  0.78294031  0.30810181
   0.15006248  0.21705969  0.80810181
   0.24832676  0.84858996  0.67574991
   0.24832676  0.15141004  0.17574991
   0.03625142  0.31901325  0.12119228
   0.03625142  0.68098675  0.62119228
   0.11542313  0.34674321  0.48214435
   0.11542313  0.65325679  0.98214435
   0.22610021  0.31731838  0.82999539
   0.22610021  0.68268162  0.32999539
   0.10796287  0.84530406  0.62410967
   0.10796287  0.15469594  0.12410967
   0.07308247  0.26006120  0.80032487
   0.07308247  0.73993880  0.30032487
   0.61540170  0.65324451  0.37150487
   0.61540170  0.34675549  0.87150487
   0.53622933  0.68097083  0.73259124
   0.53622933  0.31902917  0.23259124
   0.65002974  0.21685690  0.54542008
   0.65002974  0.78314310  0.04542008
   0.53878476  0.18139180  0.87930017
   0.53878476  0.81860820  0.37930017
   0.67874097  0.65618995  0.71304658
   0.67874097  0.34381005  0.21304658
   0.57305801  0.73987333  0.05338281
   0.57305801  0.26012667  0.55338281
   0.80298163  0.16486921  0.49561513
   0.80298163  0.83513079  0.99561513
   0.69315618  0.16445264  0.85869381
   0.69315618  0.83554736  0.35869381
   0.60791137  0.15466703  0.22954871
   0.60791137  0.84533297  0.72954871
   0.81767582  0.65603890  0.64150336
   0.81767582  0.34396110  0.14150336
   0.72606271  0.68246183  0.02331544
   0.72606271  0.31753817  0.52331544
   0.95721517  0.18144338  0.47455472
   0.95721517  0.81855662  0.97455472
   0.84617038  0.21563919  0.80873200
   0.84617038  0.78436081  0.30873200
   0.74823914  0.15139242  0.17746163
   0.74823914  0.84860758  0.67746163
   0.96023467  0.68155377  0.62137693
   0.96023467  0.31844623  0.12137693
   0.88068647  0.65349878  0.98246903
   0.88068647  0.34650122  0.48246903
   0.77013702  0.68141911  0.33118644
   0.77013702  0.31858089  0.83118644
   0.88850667  0.15463609  0.12452957
   0.88850667  0.84536391  0.62452957
   0.92317358  0.73879814  0.30065951
   0.92317358  0.26120186  0.80065951
   0.99808627  0.78084024  0.28965263
   0.99808627  0.21915976  0.78965263
   0.49807800  0.21909178  0.56418916
   0.49807800  0.78090822  0.06418916
Direct configuration=     3
   0.38070282  0.34796721  0.86796740
   0.38070282  0.65203279  0.36796740
   0.46003157  0.31735237  0.23469586
   0.46003157  0.68264763  0.73469586
   0.34684017  0.78395807  0.04438994
   0.34684017  0.21604193  0.54438994
   0.45702480  0.82180473  0.37743453
   0.45702480  0.17819527  0.87743453
   0.31744434  0.34057513  0.21343783
   0.31744434  0.65942487  0.71343783
   0.42351333  0.25973517  0.55332115
   0.42351333  0.74026483  0.05332115
   0.19357581  0.83860428  0.99654337
   0.19357581  0.16139572  0.49654337
   0.30258917  0.83803842  0.35605358
   0.30258917  0.16196158  0.85605358
   0.38848371  0.84391066  0.73259579
   0.38848371  0.15608934  0.23259579
   0.17910691  0.34038577  0.13868216
   0.17910691  0.65961423  0.63868216
   0.27108541  0.31938619  0.52182989
   0.27108541  0.68061381  0.02182989
   0.03897372  0.82178020  0.97628581
   0.03897372  0.17821980  0.47628581
   0.14944564  0.78230090  0.30847503
   0.14944564  0.21769910  0.80847503
   0.24833879  0.84422237  0.67572213
   0.24833879  0.15577763  0.17572213
   0.03648867  0.31797999  0.11888250
   0.03648867  0.68202001  0.61888250
   0.11539394  0.34820115  0.48532382
   0.11539394  0.65179885  0.98532382
   0.22516957  0.31780150  0.83033925
   0.22516957  0.68219850  0.33033925
   0.10801581  0.84381280  0.62057927
   0.10801581  0.15618720  0.12057927
   0.07278201  0.25853459  0.80009163
   0.07278201  0.74146541  0.30009163
   0.61537435  0.65178675  0.36832278
   0.61537435  0.34821325  0.86832278
   0.53646725  0.68201523  0.73489820
   0.53646725  0.31798477  0.23489820
   0.64941048  0.21749437  0.54505633
   0.64941048  0.78250563  0.04505633
   0.53895937  0.17821181  0.87749644
   0.53895937  0.82178819  0.37749644
   0.67903632  0.65958617  0.71470515
   0.67903632  0.34041383  0.21470515
   0.57275616  0.74141872  0.05363658
   0.57275616  0.25858128  0.55363658
   0.80257057  0.16191064  0.49735388
   0.80257057  0.83808936  0.99735388
   0.69355233  0.16144796  0.85688432
   0.69355233  0.83855204  0.35688432
   0.60796405  0.15616882  0.23305959
   0.60796405  0.84383118  0.73305959
   0.81737805  0.65946747  0.63993983
   0.81737805  0.34053253  0.13993983
   0.72513436  0.68196236  0.02298080
   0.72513436  0.31803764  0.52298080
   0.95703151  0.17820712  0.47634881
   0.95703151  0.82179288  0.97634881
   0.84681223  0.21626394  0.80912320
   0.84681223  0.78373606  0.30912320
   0.74824782  0.15576943  0.17748641
   0.74824782  0.84423057  0.67748641
   0.96001556  0.68263979  0.61908528
   0.96001556  0.31736021  0.11908528
   0.88069841  0.65202863  0.98567600
   0.88069841  0.34797137  0.48567600
   0.77105560  0.68081316  0.33148490
   0.77105560  0.31918684  0.83148490
   0.88843793  0.15609732  0.12103323
   0.88843793  0.84390268  0.62103323
   0.92349974  0.74035310  0.30039777
   0.92349974  0.25964690  0.80039777
   0.99808487  0.77861666  0.29044909
   0.99808487  0.22138334  0.79044909
   0.49807684  0.22131887  0.56337044
   0.49807684  0.77868113  0.06337044
Direct configuration=     4
   0.38087344  0.34797507  0.86873797
   0.38087344  0.65202493  0.36873797
   0.45992657  0.31821627  0.23445276
   0.45992657  0.68178373  0.73445276
   0.34704896  0.78297698  0.04460886
   0.34704896  0.21702303  0.54460886
   0.45695344  0.82245644  0.37793448
   0.45695344  0.17754356  0.87793448
   0.31732349  0.34006117  0.21275676
   0.31732349  0.65993883  0.71275676
   0.42358822  0.25924826  0.55382984
   0.42358822  0.74075174  0.05382984
   0.19371945  0.83926153  0.99650988
   0.19371945  0.16073847  0.49650988
   0.30242715  0.83870572  0.35606296
   0.30242715  0.16129428  0.85606296
   0.38851057  0.84434427  0.73185326
   0.38851057  0.15565573  0.23185326
   0.17922416  0.33991632  0.13939500
   0.17922416  0.66008368  0.63939500
   0.27153226  0.31893502  0.52197617
   0.27153226  0.68106498  0.02197617
   0.03904298  0.82244779  0.97578698
   0.03904298  0.17755221  0.47578698
   0.14924679  0.78134269  0.30822484
   0.14924679  0.21865731  0.80822484
   0.24834480  0.84320193  0.67573499
   0.24834480  0.15679807  0.17573499
   0.03660850  0.31888616  0.11909365
   0.03660850  0.68111384  0.61909365
   0.11521108  0.34817781  0.48450840
   0.11521108  0.65182219  0.98450840
   0.22471838  0.31726838  0.83020956
   0.22471838  0.68273162  0.33020956
   0.10798313  0.84426911  0.62132512
   0.10798313  0.15573089  0.12132512
   0.07271779  0.25804648  0.79957654
   0.07271779  0.74195352  0.29957654
   0.61519366  0.65181195  0.36913299
   0.61519366  0.34818805  0.86913299
   0.53658664  0.68110919  0.73467893
   0.53658664  0.31889081  0.23467893
   0.64921135  0.21845637  0.54531133
   0.64921135  0.78154363  0.04531133
   0.53902761  0.17754741  0.87799384
   0.53902761  0.82245259  0.37799384
   0.67915445  0.66006086  0.71399920
   0.67915445  0.33993914  0.21399920
   0.57269182  0.74191204  0.05415124
   0.57269182  0.25808796  0.55415124
   0.80241230  0.16124018  0.49734718
   0.80241230  0.83875982  0.99734718
   0.69369872  0.16079091  0.85691794
   0.69369872  0.83920909  0.35691794
   0.60793161  0.15572138  0.23231166
   0.60793161  0.84427862  0.73231166
   0.81725862  0.65997674  0.64062784
   0.81725862  0.34002326  0.14062784
   0.72468397  0.68248933  0.02311974
   0.72468397  0.31751067  0.52311973
   0.95695948  0.17755244  0.47584585
   0.95695948  0.82244756  0.97584585
   0.84702060  0.21724133  0.80890759
   0.84702060  0.78275867  0.30890759
   0.74825310  0.15679192  0.17748117
   0.74825310  0.84320808  0.67748117
   0.95991008  0.68177237  0.61931821
   0.95991008  0.31822763  0.11931821
   0.88087044  0.65202167  0.98489915
   0.88087044  0.34797833  0.48489915
   0.77150412  0.68127602  0.33134741
   0.77150412  0.31872398  0.83134741
   0.88846518  0.15565767  0.12177353
   0.88846518  0.84434233  0.62177353
   0.92357380  0.74083220  0.29988879
   0.92357380  0.25916780  0.79988879
   0.99808485  0.77666865  0.29078239
   0.99808485  0.22333135  0.79078239
   0.49807641  0.22327381  0.56302595
   0.49807641  0.77672619  0.06302595
Direct configuration=     5
   0.38125250  0.34799255  0.87044984
   0.38125250  0.65200745  0.37044984
   0.45969330  0.32013548  0.23391271
   0.45969330  0.67986452  0.73391271
   0.34751282  0.78079741  0.04509521
   0.34751282  0.21920259  0.54509521
   0.45679491  0.82390426  0.37904517
   0.45679491  0.17609574  0.87904517
   0.31705500  0.33891939  0.21124373
   0.31705500  0.66108061  0.71124373
   0.42375459  0.25816655  0.55495993
   0.42375459  0.74183345  0.05495993
   0.19403856  0.84072166  0.99643549
   0.19403856  0.15927834  0.49643549
   0.30206724  0.84018818  0.35608380
   0.30206724  0.15981183  0.85608380
   0.38857025  0.84530755  0.73020368
   0.38857025  0.15469245  0.23020368
   0.17948464  0.33887341  0.14097863
   0.17948464  0.66112659  0.64097862
   0.27252496  0.31793270  0.52230113
   0.27252496  0.68206730  0.02230113
   0.03919683  0.82393088  0.97467879
   0.03919683  0.17606912  0.47467879
   0.14880502  0.77921396  0.30766901
   0.14880502  0.22078604  0.80766901
   0.24835816  0.84093495  0.67576358
   0.24835816  0.15906505  0.17576358
   0.03687472  0.32089927  0.11956273
   0.03687472  0.67910073  0.61956273
   0.11480485  0.34812595  0.48269690
   0.11480485  0.65187405  0.98269690
   0.22371603  0.31608400  0.82992144
   0.22371603  0.68391600  0.32992144
   0.10791052  0.84528284  0.62298205
   0.10791052  0.15471717  0.12298205
   0.07257512  0.25696211  0.79843223
   0.07257512  0.74303789  0.29843223
   0.61479227  0.65186793  0.37093294
   0.61479227  0.34813207  0.87093294
   0.53685188  0.67909637  0.73419181
   0.53685188  0.32090363  0.23419181
   0.64876898  0.22059350  0.54587781
   0.64876898  0.77940650  0.04587781
   0.53917922  0.17607141  0.87909883
   0.53917922  0.82392859  0.37909883
   0.67941687  0.66111542  0.71243089
   0.67941687  0.33888458  0.21243089
   0.57254890  0.74300799  0.05529460
   0.57254890  0.25699201  0.55529460
   0.80206069  0.15975072  0.49733229
   0.80206069  0.84024928  0.99733229
   0.69402394  0.15933124  0.85699262
   0.69402394  0.84066876  0.35699262
   0.60785952  0.15472736  0.23065008
   0.60785952  0.84527264  0.73065008
   0.81699331  0.66110812  0.64215629
   0.81699331  0.33889188  0.14215629
   0.72368340  0.68366003  0.02342839
   0.72368340  0.31633997  0.52342839
   0.95679946  0.17609800  0.47472850
   0.95679946  0.82390200  0.97472850
   0.84748352  0.21941268  0.80842860
   0.84748352  0.78058732  0.30842860
   0.74826483  0.15906343  0.17746953
   0.74826483  0.84093657  0.67746953
   0.95967573  0.67984535  0.61983568
   0.95967573  0.32015465  0.11983568
   0.88125262  0.65200622  0.98317335
   0.88125262  0.34799378  0.48317335
   0.77250055  0.68230430  0.33104197
   0.77250055  0.31769570  0.83104197
   0.88852571  0.15468098  0.12341816
   0.88852571  0.84531902  0.62341816
   0.92373832  0.74189655  0.29875806
   0.92373832  0.25810345  0.79875806
   0.99808482  0.77234101  0.29152286
   0.99808482  0.22765899  0.79152286
   0.49807544  0.22761683  0.56226064
   0.49807544  0.77238317  0.06226064
Direct configuration=     6
   0.38165497  0.34722053  0.87070125
   0.38165497  0.65277947  0.37070125
   0.45963683  0.32104833  0.23420232
   0.45963683  0.67895167  0.73420232
   0.34752836  0.78028893  0.04500802
   0.34752836  0.21971107  0.54500802
   0.45680530  0.82376427  0.37908997
   0.45680530  0.17623573  0.87908997
   0.31711828  0.33817892  0.21048601
   0.31711828  0.66182108  0.71048601
   0.42364825  0.25843580  0.55475015
   0.42364825  0.74156420  0.05475015
   0.19406895  0.84011137  0.99617886
   0.19406895  0.15988864  0.49617886
   0.30201054  0.83963406  0.35632020
   0.30201054  0.16036594  0.85632020
   0.38871164  0.84510569  0.73087563
   0.38871164  0.15489431  0.23087563
   0.17942330  0.33808958  0.14170516
   0.17942330  0.66191042  0.64170516
   0.27276449  0.31681710  0.52274994
   0.27276449  0.68318290  0.02274994
   0.03918878  0.82385429  0.97460194
   0.03918878  0.17614571  0.47460194
   0.14878945  0.77871476  0.30776963
   0.14878945  0.22128524  0.80776963
   0.24835248  0.84117071  0.67577754
   0.24835248  0.15882929  0.17577754
   0.03695398  0.32189881  0.11926119
   0.03695398  0.67810119  0.61926119
   0.11439287  0.34740227  0.48247672
   0.11439287  0.65259773  0.98247672
   0.22348282  0.31495407  0.82950621
   0.22348282  0.68504593  0.32950621
   0.10776854  0.84504891  0.62221955
   0.10776854  0.15495109  0.12221955
   0.07268166  0.25718966  0.79861085
   0.07268166  0.74281034  0.29861085
   0.61438199  0.65259911  0.37116057
   0.61438199  0.34740089  0.87116057
   0.53693074  0.67809909  0.73448743
   0.53693074  0.32190091  0.23448743
   0.64875386  0.22109214  0.54577563
   0.64875386  0.77890786  0.04577563
   0.53916937  0.17615332  0.87916388
   0.53916937  0.82384668  0.37916388
   0.67935740  0.66189640  0.71171072
   0.67935740  0.33810360  0.21171072
   0.57265579  0.74278050  0.05510596
   0.57265579  0.25721950  0.55510596
   0.80200852  0.16031044  0.49710001
   0.80200852  0.83968956  0.99710001
   0.69405996  0.15993693  0.85725197
   0.69405996  0.84006307  0.35725197
   0.60771890  0.15496379  0.23140827
   0.60771890  0.84503621  0.73140827
   0.81705648  0.66184682  0.64291714
   0.81705648  0.33815318  0.14291714
   0.72345026  0.68479210  0.02385727
   0.72345026  0.31520790  0.52385727
   0.95680687  0.17622531  0.47467599
   0.95680687  0.82377469  0.97467599
   0.84750008  0.21992282  0.80852326
   0.84750008  0.78007718  0.30852326
   0.74826183  0.15882799  0.17746978
   0.74826183  0.84117201  0.67746978
   0.95961714  0.67892893  0.61953517
   0.95961714  0.32107107  0.11953517
   0.88165745  0.65276705  0.98292666
   0.88165745  0.34723295  0.48292666
   0.77274042  0.68342574  0.33060650
   0.77274042  0.31657426  0.83060650
   0.88866861  0.15488103  0.12273984
   0.88866861  0.84511897  0.62273984
   0.92363212  0.74162862  0.29895578
   0.92363212  0.25837138  0.79895578
   0.99808435  0.76967460  0.29148465
   0.99808435  0.23032540  0.79148465
   0.49807635  0.23029511  0.56229233
   0.49807635  0.76970489  0.06229233
Direct configuration=     7
   0.38247795  0.34564188  0.87121535
   0.38247795  0.65435812  0.37121535
   0.45952137  0.32291494  0.23479450
   0.45952137  0.67708506  0.73479450
   0.34756014  0.77924919  0.04482974
   0.34756014  0.22075081  0.54482974
   0.45682653  0.82347802  0.37918157
   0.45682653  0.17652198  0.87918157
   0.31724767  0.33666481  0.20893662
   0.31724767  0.66333519  0.70893662
   0.42343079  0.25898636  0.55432119
   0.42343079  0.74101364  0.05432119
   0.19413110  0.83886342  0.99565410
   0.19413110  0.16113658  0.49565410
   0.30189462  0.83850100  0.35680358
   0.30189462  0.16149900  0.85680358
   0.38900078  0.84469294  0.73224964
   0.38900078  0.15530706  0.23224964
   0.17929786  0.33648680  0.14319078
   0.17929786  0.66351320  0.64319078
   0.27325429  0.31453589  0.52366767
   0.27325429  0.68546411  0.02366767
   0.03917232  0.82369768  0.97444480
   0.03917232  0.17630232  0.47444480
   0.14875760  0.77769398  0.30797537
   0.14875760  0.22230602  0.80797537
   0.24834086  0.84165279  0.67580611
   0.24834086  0.15834721  0.17580611
   0.03711604  0.32394269  0.11864459
   0.03711604  0.67605731  0.61864459
   0.11355044  0.34592248  0.48202649
   0.11355044  0.65407752  0.98202649
   0.22300595  0.31264356  0.82865712
   0.22300595  0.68735644  0.32865712
   0.10747822  0.84457057  0.62066037
   0.10747822  0.15542943  0.12066037
   0.07289951  0.25765496  0.79897611
   0.07289951  0.74234504  0.29897611
   0.61354304  0.65409425  0.37162603
   0.61354304  0.34590575  0.87162603
   0.53709201  0.67605985  0.73509192
   0.53709201  0.32394015  0.23509192
   0.64872294  0.22211176  0.54556669
   0.64872294  0.77788824  0.04556669
   0.53914922  0.17632080  0.87929690
   0.53914922  0.82367920  0.37929690
   0.67923581  0.66349335  0.71023812
   0.67923581  0.33650665  0.21023812
   0.57287436  0.74231531  0.05472025
   0.57287436  0.25768469  0.55472025
   0.80190182  0.16145498  0.49662503
   0.80190182  0.83854502  0.99662503
   0.69413362  0.16117547  0.85778227
   0.69413362  0.83882453  0.35778227
   0.60743135  0.15544722  0.23295862
   0.60743135  0.84455278  0.73295862
   0.81718566  0.66335731  0.64447294
   0.81718566  0.33664269  0.14447294
   0.72297354  0.68710695  0.02473424
   0.72297354  0.31289305  0.52473424
   0.95682202  0.17648561  0.47456862
   0.95682202  0.82351439  0.97456862
   0.84753396  0.22096595  0.80871682
   0.84753396  0.77903405  0.30871682
   0.74825570  0.15834656  0.17747031
   0.74825570  0.84165344  0.67747031
   0.95949736  0.67705502  0.61892069
   0.95949736  0.32294498  0.11892069
   0.88248525  0.65432280  0.98242223
   0.88248525  0.34567720  0.48242223
   0.77323091  0.68571888  0.32971604
   0.77323091  0.31428112  0.82971604
   0.88896082  0.15529009  0.12135281
   0.88896082  0.84470991  0.62135281
   0.92341495  0.74108076  0.29936007
   0.92341495  0.25891924  0.79936007
   0.99808338  0.76422229  0.29140652
   0.99808338  0.23577771  0.79140652
   0.49807820  0.23577167  0.56235713
   0.49807820  0.76422833  0.06235713
Direct configuration=     8
   0.38302010  0.34525253  0.87168921
   0.38302010  0.65474747  0.37168921
   0.45949714  0.32267427  0.23528052
   0.45949714  0.67732573  0.73528052
   0.34765121  0.77975529  0.04474971
   0.34765121  0.22024472  0.54474971
   0.45684962  0.82506716  0.37903324
   0.45684962  0.17493284  0.87903324
   0.31728848  0.33444913  0.20948987
   0.31728848  0.66555087  0.70948987
   0.42348368  0.25873044  0.55490482
   0.42348368  0.74126956  0.05490482
   0.19407033  0.83764809  0.99600247
   0.19407033  0.16235191  0.49600247
   0.30191858  0.83739649  0.35649568
   0.30191858  0.16260351  0.85649568
   0.38918812  0.84428225  0.73233306
   0.38918812  0.15571775  0.23233306
   0.17925260  0.33430005  0.14258156
   0.17925260  0.66569995  0.64258156
   0.27342386  0.31448203  0.52346639
   0.27342386  0.68551797  0.02346639
   0.03914746  0.82533979  0.97456756
   0.03914746  0.17466021  0.47456756
   0.14866483  0.77809043  0.30798040
   0.14866483  0.22190957  0.80798040
   0.24833275  0.84076818  0.67581519
   0.24833275  0.15923182  0.17581519
   0.03716214  0.32382767  0.11808932
   0.03716214  0.67617233  0.61808932
   0.11300476  0.34556548  0.48144252
   0.11300476  0.65443452  0.98144252
   0.22284456  0.31269806  0.82887089
   0.22284456  0.68730194  0.32887089
   0.10730066  0.84425395  0.62069270
   0.10730066  0.15574605  0.12069270
   0.07284476  0.25727866  0.79832404
   0.07284476  0.74272134  0.29832404
   0.61299745  0.65445821  0.37220280
   0.61299745  0.34554179  0.87220280
   0.53713798  0.67617961  0.73562423
   0.53713798  0.32382039  0.23562423
   0.64863189  0.22170732  0.54556499
   0.64863189  0.77829268  0.04556499
   0.53912224  0.17467952  0.87917026
   0.53912224  0.82532048  0.37917026
   0.67919323  0.66568608  0.71083973
   0.67919323  0.33431392  0.21083973
   0.57282292  0.74268938  0.05536105
   0.57282292  0.25731062  0.55536105
   0.80193413  0.16256417  0.49695300
   0.80193413  0.83743583  0.99695300
   0.69408098  0.16237516  0.85745525
   0.69408098  0.83762484  0.35745525
   0.60725608  0.15577476  0.23293637
   0.60725608  0.84422524  0.73293637
   0.81722957  0.66557355  0.64392023
   0.81722957  0.33442645  0.14392023
   0.72281271  0.68707089  0.02453791
   0.72281271  0.31292911  0.52453791
   0.95684199  0.17489716  0.47469347
   0.95684199  0.82510284  0.97469347
   0.84762607  0.22047112  0.80879337
   0.84762607  0.77952888  0.30879337
   0.74825189  0.15923002  0.17748221
   0.74825189  0.84076998  0.67748221
   0.95947182  0.67727907  0.61842683
   0.95947182  0.32272093  0.11842683
   0.88302719  0.65470933  0.98194745
   0.88302719  0.34529067  0.48194745
   0.77340223  0.68576482  0.32993476
   0.77340223  0.31423518  0.82993476
   0.88914906  0.15568611  0.12127536
   0.88914906  0.84431389  0.62127536
   0.92346811  0.74134054  0.29876655
   0.92346811  0.25865946  0.79876655
   0.99808616  0.76071037  0.29186283
   0.99808616  0.23928963  0.79186283
   0.49808065  0.23929214  0.56188212
   0.49808065  0.76070786  0.06188212
Direct configuration=     9
   0.38331726  0.34503913  0.87194893
   0.38331726  0.65496087  0.37194893
   0.45948386  0.32254236  0.23554692
   0.45948386  0.67745764  0.73554692
   0.34770113  0.78003268  0.04470584
   0.34770113  0.21996733  0.54470584
   0.45686228  0.82593818  0.37895194
   0.45686228  0.17406182  0.87895194
   0.31731084  0.33323471  0.20979310
   0.31731084  0.66676529  0.70979310
   0.42351266  0.25859017  0.55522471
   0.42351266  0.74140983  0.05522472
   0.19403701  0.83698196  0.99619341
   0.19403701  0.16301804  0.49619341
   0.30193171  0.83679111  0.35632692
   0.30193171  0.16320889  0.85632692
   0.38929081  0.84405715  0.73237879
   0.38929081  0.15594285  0.23237879
   0.17922778  0.33310148  0.14224765
   0.17922778  0.66689852  0.64224765
   0.27351680  0.31445250  0.52335607
   0.27351680  0.68554750  0.02335607
   0.03913384  0.82623983  0.97463485
   0.03913384  0.17376017  0.47463485
   0.14861398  0.77830773  0.30798316
   0.14861398  0.22169227  0.80798316
   0.24832830  0.84028332  0.67582017
   0.24832830  0.15971668  0.17582017
   0.03718741  0.32376463  0.11778498
   0.03718741  0.67623537  0.61778498
   0.11270568  0.34536981  0.48112245
   0.11270568  0.65463019  0.98112245
   0.22275610  0.31272794  0.82898805
   0.22275610  0.68727206  0.32898806
   0.10720334  0.84408041  0.62071042
   0.10720334  0.15591959  0.12071042
   0.07281475  0.25707241  0.79796663
   0.07281475  0.74292759  0.29796663
   0.61269840  0.65465770  0.37251893
   0.61269840  0.34534230  0.87251893
   0.53716318  0.67624525  0.73591599
   0.53716318  0.32375475  0.23591599
   0.64858198  0.22148564  0.54556406
   0.64858198  0.77851436  0.04556406
   0.53910745  0.17377992  0.87910084
   0.53910745  0.82622008  0.37910084
   0.67916989  0.66688792  0.71116948
   0.67916989  0.33311208  0.21116948
   0.57279472  0.74289440  0.05571228
   0.57279472  0.25710560  0.55571228
   0.80195183  0.16317212  0.49713276
   0.80195183  0.83682788  0.99713276
   0.69405213  0.16303272  0.85727601
   0.69405213  0.83696728  0.35727601
   0.60716002  0.15595429  0.23292417
   0.60716002  0.84404571  0.73292417
   0.81725364  0.66678828  0.64361729
   0.81725364  0.33321172  0.14361729
   0.72272457  0.68705113  0.02443030
   0.72272457  0.31294887  0.52443029
   0.95685293  0.17402652  0.47476190
   0.95685293  0.82597348  0.97476190
   0.84767655  0.22019990  0.80883534
   0.84767655  0.77980010  0.30883534
   0.74824980  0.15971425  0.17748873
   0.74824980  0.84028575  0.67748873
   0.95945783  0.67740187  0.61815614
   0.95945783  0.32259813  0.11815614
   0.88332423  0.65492119  0.98168723
   0.88332423  0.34507881  0.48168723
   0.77349613  0.68579001  0.33005464
   0.77349613  0.31420999  0.83005464
   0.88925223  0.15590317  0.12123292
   0.88925223  0.84409683  0.62123292
   0.92349724  0.74148293  0.29844124
   0.92349724  0.25851707  0.79844124
   0.99808768  0.75878547  0.29211293
   0.99808768  0.24121453  0.79211293
   0.49808200  0.24122172  0.56162176
   0.49808200  0.75877828  0.06162176
Direct configuration=    10
   0.38352803  0.34553270  0.87199143
   0.38352803  0.65446730  0.37199143
   0.45950694  0.32317410  0.23533064
   0.45950694  0.67682590  0.73533064
   0.34786563  0.77988290  0.04532100
   0.34786563  0.22011710  0.54532100
   0.45690109  0.82625587  0.37939463
   0.45690109  0.17374413  0.87939463
   0.31733245  0.33298556  0.20970175
   0.31733245  0.66701444  0.70970175
   0.42374356  0.25827794  0.55570252
   0.42374356  0.74172206  0.05570253
   0.19395914  0.83645068  0.99578808
   0.19395914  0.16354932  0.49578808
   0.30197972  0.83627884  0.35670404
   0.30197972  0.16372116  0.85670404
   0.38940291  0.84427346  0.73258454
   0.38940291  0.15572654  0.23258454
   0.17919007  0.33290609  0.14236433
   0.17919007  0.66709391  0.64236433
   0.27357477  0.31496788  0.52286952
   0.27357477  0.68503212  0.02286952
   0.03908575  0.82654892  0.97412110
   0.03908575  0.17345108  0.47412110
   0.14844452  0.77804164  0.30731630
   0.14844452  0.22195836  0.80731630
   0.24832849  0.83993193  0.67581810
   0.24832849  0.16006807  0.17581810
   0.03716756  0.32443122  0.11797245
   0.03716756  0.67556878  0.61797245
   0.11249545  0.34589819  0.48115268
   0.11249545  0.65410181  0.98115268
   0.22270666  0.31335307  0.82944162
   0.22270666  0.68664693  0.32944162
   0.10710451  0.84426361  0.62038159
   0.10710451  0.15573639  0.12038159
   0.07258981  0.25673118  0.79751628
   0.07258981  0.74326882  0.29751628
   0.61249076  0.65412632  0.37249406
   0.61249076  0.34587368  0.87249406
   0.53714517  0.67558163  0.73572492
   0.53714517  0.32441837  0.23572492
   0.64841560  0.22174793  0.54623509
   0.64841560  0.77825207  0.04623509
   0.53906077  0.17347807  0.87959191
   0.53906077  0.82652193  0.37959191
   0.67913545  0.66709036  0.71106987
   0.67913545  0.33290964  0.21106987
   0.57257194  0.74323930  0.05616869
   0.57257194  0.25676070  0.55616869
   0.80200666  0.16369320  0.49675974
   0.80200666  0.83630680  0.99675974
   0.69398105  0.16355874  0.85768320
   0.69398105  0.83644126  0.35768320
   0.60706516  0.15577246  0.23323882
   0.60706516  0.84422754  0.73323882
   0.81727897  0.66702732  0.64372729