unknown system                          
           1
     5.110600    0.000000    0.000000
     0.000000    9.811800    0.000000
     0.000000    0.000000   29.526209
   O    Ti
     1    80
Direct configuration=     1
   0.62022617  0.39830359  0.48677696
   0.19616290  0.46687691  0.02431229
   0.71365631  0.50949637  0.07622885
   0.71183383  0.05499641  0.12379958
   0.20302168  0.10292353  0.17473772
   0.71318326  0.15042741  0.22556127
   0.21461566  0.19607905  0.27323574
   0.70171203  0.23899885  0.32488623
   0.23745945  0.30988464  0.37595128
   0.75208056  0.32420467  0.42157101
   0.28963848  0.28221149  0.47529322
   0.53442480  0.24246906  0.05050143
   0.04114632  0.28270159  0.09935676
   0.54349231  0.32742070  0.15055080
   0.04402611  0.37875249  0.19938852
   0.54311434  0.42330857  0.25068304
   0.03898777  0.46509544  0.29926990
   0.55819258  0.52378575  0.34892826
   0.49342593  0.07817423  0.40338854
   0.98791286  0.06428684  0.44724933
   0.69619796  0.96691481  0.02430372
   0.21366105  0.00942538  0.07608528
   0.21197797  0.55507611  0.12382065
   0.70260872  0.60299706  0.17504793
   0.21249209  0.65116197  0.22573006
   0.71448515  0.69621689  0.27423497
   0.20130092  0.74041816  0.32552899
   0.72811319  0.80811612  0.37728031
   0.24232645  0.83000387  0.42245426
   0.79365518  0.78689312  0.47657043
   0.03437340  0.74255194  0.05048387
   0.54107871  0.78269882  0.09947151
   0.04355191  0.82726055  0.15049682
   0.54390637  0.87857847  0.19960741
   0.04202329  0.92334179  0.25054337
   0.53683081  0.96445374  0.29959339
   0.05116132  0.02551183  0.34809696
   0.00148509  0.57870145  0.40287439
   0.48864982  0.56925614  0.44768721
   0.73116272  0.39519214  0.97228814
   0.24034305  0.37774950  0.92815548
   0.29455620  0.92442295  0.87336948
   0.78327403  0.98075449  0.82534517
   0.28867135  0.01904063  0.77564293
   0.79048893  0.06270417  0.72492864
   0.28971034  0.10806680  0.67512535
   0.78956193  0.15132394  0.62483559
   0.28678092  0.19175917  0.57477521
   0.78489995  0.23020074  0.52284374
   0.48995583  0.12837733  0.94644562
   0.98552680  0.14174728  0.90336856
   0.44835840  0.20538474  0.85017211
   0.96275308  0.24640832  0.79948298
   0.45893303  0.29074832  0.75094404
   0.95547946  0.33576477  0.70014943
   0.45701945  0.38036441  0.65014749
   0.45972771  0.92366372  0.60048954
   0.96178000  0.96719176  0.55128234
   0.23149378  0.89512839  0.97221117
   0.74043433  0.87792988  0.92819714
   0.79436911  0.42420659  0.87336698
   0.28313293  0.48045858  0.82550052
   0.78890408  0.51883970  0.77584545
   0.28945831  0.56224172  0.72517792
   0.78877965  0.60807310  0.67581173
   0.28987627  0.65139508  0.62584627
   0.79038951  0.69379082  0.57560641
   0.28566331  0.73515350  0.52495781
   0.98977047  0.62827387  0.94649571
   0.48559867  0.64169449  0.90350062
   0.94838123  0.70533210  0.85038839
   0.46302557  0.74627675  0.79972921
   0.95925599  0.79055344  0.75131821
   0.45578471  0.83595524  0.70057846
   0.95838412  0.87979278  0.65063006
   0.95975401  0.42615089  0.60051448
   0.45877349  0.47201012  0.55024080
   0.05200271  0.18181882  0.00210437
   0.55221570  0.68188220  0.00221675
   0.44906030  0.00907128  0.50088000
   0.95273341  0.51488348  0.50085967
Direct configuration=     2
   0.62027322  0.39815449  0.48675920
   0.19487287  0.46664578  0.02430145
   0.71238920  0.50965596  0.07634856
   0.71071510  0.05491979  0.12378355
   0.20198680  0.10292449  0.17473160
   0.71211122  0.15049781  0.22558652
   0.21336208  0.19594821  0.27312386
   0.70056983  0.23934080  0.32492763
   0.23722573  0.30975352  0.37603416
   0.75141471  0.32431236  0.42209444
   0.29123256  0.28215961  0.47526486
   0.53537453  0.24238826  0.05060700
   0.04259249  0.28279016  0.09937230
   0.54450483  0.32747227  0.15056014
   0.04508502  0.37871020  0.19937330
   0.54444278  0.42323620  0.25068001
   0.03995443  0.46514914  0.29916708
   0.55946571  0.52394168  0.34894100
   0.49351642  0.07795201  0.40345219
   0.98744692  0.06388149  0.44721858
   0.69488678  0.96664528  0.02429695
   0.21243064  0.00959609  0.07621729
   0.21086609  0.55498067  0.12379674
   0.70153298  0.60304958  0.17504536
   0.21136716  0.65119951  0.22575754
   0.71316426  0.69608774  0.27412440
   0.20009523  0.74064051  0.32551831
   0.72769547  0.80796922  0.37733424
   0.24249185  0.82984151  0.42242906
   0.79447295  0.78687766  0.47656789
   0.03527656  0.74244919  0.05059027
   0.54257158  0.78277309  0.09948610
   0.04450957  0.82731313  0.15050895
   0.54492759  0.87850153  0.19959097
   0.04342046  0.92323237  0.25054403
   0.53768287  0.96459700  0.29949404
   0.05237294  0.02560271  0.34813123
   0.00148125  0.57851514  0.40291048
   0.48868105  0.56865922  0.44798548
   0.73090915  0.39534109  0.97225752
   0.24024633  0.37789472  0.92819760
   0.29572508  0.92430293  0.87339471
   0.78415767  0.98058884  0.82524772
   0.29005851  0.01908288  0.77564753
   0.79152567  0.06269959  0.72492333
   0.29082634  0.10803175  0.67511008
   0.79055440  0.15125421  0.62483153
   0.28842939  0.19187686  0.57476930
   0.78532231  0.23095382  0.52258550
   0.48997732  0.12856070  0.94637340
   0.98508162  0.14201895  0.90338503
   0.44700231  0.20525621  0.85019130
   0.96162809  0.24655837  0.79936454
   0.45787690  0.29068445  0.75096076
   0.95435023  0.33582541  0.70014401
   0.45592141  0.38048133  0.65013581
   0.45863403  0.92366532  0.60050470
   0.96068716  0.96707776  0.55143028
   0.23122829  0.89528441  0.97217937
   0.74032525  0.87806106  0.92823546
   0.79551223  0.42407270  0.87339393
   0.28399658  0.48033689  0.82541312
   0.79022662  0.51886346  0.77583773
   0.29060569  0.56229228  0.72515503
   0.78986215  0.60802561  0.67579838
   0.29097022  0.65129625  0.62588326
   0.79178939  0.69379812  0.57565313
   0.28669144  0.73537853  0.52502267
   0.98984697  0.62846568  0.94642101
   0.48506569  0.64197293  0.90351943
   0.94710062  0.70522062  0.85040380
   0.46187760  0.74642898  0.79959776
   0.95824332  0.79051287  0.75132743
   0.45462375  0.83600306  0.70059493
   0.95718847  0.87981743  0.65059549
   0.95841052  0.42607755  0.60050795
   0.45834946  0.47155309  0.54982571
   0.05330224  0.18176603  0.00205730
   0.55347684  0.68180505  0.00218418
   0.44778224  0.00921420  0.50085825
   0.95056437  0.51498644  0.50077549
Direct configuration=     3
   0.62038920  0.39778692  0.48671542
   0.19169258  0.46607598  0.02427474
   0.70926544  0.51004940  0.07664367
   0.70795711  0.05473090  0.12374401
   0.19943552  0.10292684  0.17471650
   0.70946834  0.15067138  0.22564878
   0.21027165  0.19562568  0.27284804
   0.69775399  0.24018380  0.32502971
   0.23664954  0.30943030  0.37623848
   0.74977320  0.32457783  0.42338485
   0.29516241  0.28203170  0.47519493
   0.53771590  0.24218905  0.05086728
   0.04615769  0.28300852  0.09941061
   0.54700098  0.32759939  0.15058316
   0.04769554  0.37860595  0.19933578
   0.54771776  0.42305778  0.25067255
   0.04233754  0.46528153  0.29891360
   0.56260434  0.52432610  0.34897241
   0.49373950  0.07740417  0.40360909
   0.98629823  0.06288218  0.44714277
   0.69165433  0.96598083  0.02428026
   0.20939732  0.01001693  0.07654275
   0.20812498  0.55474541  0.12373780
   0.69888098  0.60317908  0.17503903
   0.20859388  0.65129205  0.22582531
   0.70990788  0.69576937  0.27385180
   0.19712289  0.74118867  0.32549198
   0.72666568  0.80760707  0.37746721
   0.24289960  0.82944125  0.42236694
   0.79648899  0.78683956  0.47656162
   0.03750309  0.74219588  0.05085256
   0.54625192  0.78295618  0.09952205
   0.04687047  0.82744273  0.15053884
   0.54744518  0.87831184  0.19955046
   0.04686488  0.92296261  0.25054566
   0.53978346  0.96495018  0.29924911
   0.05535993  0.02582676  0.34821569
   0.00147179  0.57805581  0.40299945
   0.48875806  0.56718764  0.44872081
   0.73028402  0.39570829  0.97218204
   0.24000789  0.37825273  0.92830145
   0.29860669  0.92400703  0.87345689
   0.78633611  0.98018047  0.82500748
   0.29347824  0.01918704  0.77565885
   0.79408153  0.06268830  0.72491025
   0.29357762  0.10794535  0.67507243
   0.79300113  0.15108231  0.62482152
   0.29249335  0.19216700  0.57475474
   0.78636357  0.23281038  0.52194888
   0.49003031  0.12901275  0.94619535
   0.98398411  0.14268869  0.90342565
   0.44365918  0.20493934  0.85023861
   0.95885467  0.24692830  0.79907255
   0.45527324  0.29052699  0.75100199
   0.95156636  0.33597490  0.70013065
   0.45321443  0.38076956  0.65010703
   0.45593779  0.92366925  0.60054205
   0.95799301  0.96679673  0.55179498
   0.23057378  0.89566903  0.97210098
   0.74005633  0.87838446  0.92832994
   0.79833035  0.42374265  0.87346036
   0.28612573  0.48003688  0.82519765
   0.79348707  0.51892202  0.77581869
   0.29343432  0.56241692  0.72509861
   0.79253080  0.60790851  0.67576548
   0.29366712  0.65105260  0.62597447
   0.79524048  0.69381613  0.57576832
   0.28922607  0.73593330  0.52518257
   0.99003557  0.62893855  0.94623687
   0.48375174  0.64265937  0.90356579
   0.94394355  0.70494580  0.85044181
   0.45904750  0.74680427  0.79927369
   0.95574680  0.79041283  0.75135015
   0.45176165  0.83612095  0.70063555
   0.95424085  0.87987820  0.65051025
   0.95509842  0.42589675  0.60049184
   0.45730410  0.47042638  0.54880241
   0.05650594  0.18163588  0.00194126
   0.55658592  0.68161487  0.00210387
   0.44463144  0.00956654  0.50080463
   0.94521707  0.51524027  0.50056797
Direct configuration=     4
   0.61979121  0.39796028  0.48684688
   0.18974455  0.46603213  0.02419149
   0.70745570  0.51006521  0.07686916
   0.70666101  0.05479262  0.12376283
   0.19760551  0.10292481  0.17472610
   0.70817545  0.15066905  0.22567059
   0.20845895  0.19561816  0.27266806
   0.69634337  0.24064112  0.32528070
   0.23569433  0.30950267  0.37642933
   0.75184072  0.32404871  0.42326735
   0.29107574  0.28108082  0.47512399
   0.53967176  0.24227901  0.05097220
   0.04761245  0.28316463  0.09944467
   0.54872731  0.32755348  0.15063312
   0.04940226  0.37866060  0.19928014
   0.54917271  0.42287746  0.25066818
   0.04425363  0.46526076  0.29878803
   0.56387941  0.52466369  0.34906792
   0.49412979  0.07739615  0.40378375
   0.98614328  0.06249442  0.44708691
   0.68969620  0.96590986  0.02421151
   0.20758552  0.01004657  0.07678180
   0.20676145  0.55480508  0.12374716
   0.69703272  0.60320832  0.17504568
   0.20716635  0.65122936  0.22581632
   0.70804226  0.69577322  0.27365751
   0.19523494  0.74125641  0.32552949
   0.72630528  0.80761022  0.37750711
   0.24315669  0.82880370  0.42236845
   0.79732637  0.78729498  0.47659681
   0.03939384  0.74225457  0.05096325
   0.54774619  0.78309285  0.09955180
   0.04853819  0.82736534  0.15059727
   0.54911033  0.87833795  0.19950316
   0.04829833  0.92278075  0.25053259
   0.54159839  0.96508496  0.29915601
   0.05677229  0.02607727  0.34825846
   0.00179032  0.57754162  0.40314111
   0.48620756  0.56787217  0.44874222
   0.73015902  0.39570162  0.97214028
   0.23998473  0.37849241  0.92840602
   0.29987891  0.92367588  0.87345097
   0.78798513  0.98012930  0.82488058
   0.29499796  0.01928295  0.77566917
   0.79595606  0.06253913  0.72486264
   0.29524408  0.10797789  0.67501822
   0.79438085  0.15116539  0.62484146
   0.29490324  0.19254497  0.57469465
   0.78965859  0.23205039  0.52199715
   0.49006808  0.12918694  0.94605393
   0.98357406  0.14287871  0.90344625
   0.44172565  0.20507060  0.85029454
   0.95705729  0.24698256  0.79886178
   0.45391975  0.29054157  0.75099476
   0.94968109  0.33605735  0.70009170
   0.45178706  0.38080686  0.65006276
   0.45452831  0.92341857  0.60060887
   0.95594309  0.96730868  0.55193864
   0.23040047  0.89567441  0.97205930
   0.74003541  0.87859968  0.92842913
   0.79952263  0.42340103  0.87345750
   0.28770660  0.48004024  0.82508875
   0.79504015  0.51895606  0.77581777
   0.29539266  0.56233771  0.72503369
   0.79419994  0.60793379  0.67573213
   0.29562261  0.65076566  0.62592032
   0.79670914  0.69365850  0.57588221
   0.29062548  0.73591114  0.52524536
   0.99007156  0.62913977  0.94609964
   0.48328015  0.64288387  0.90358518
   0.94201852  0.70507336  0.85048187
   0.45724487  0.74686546  0.79904846
   0.95450522  0.79044750  0.75132217
   0.44984701  0.83624473  0.70064126
   0.95239878  0.87988347  0.65049500
   0.95295200  0.42566562  0.60033702
   0.45435768  0.47028388  0.54872482
   0.05798264  0.18132528  0.00189442
   0.55801173  0.68127750  0.00206639
   0.44320952  0.00935287  0.50077683
   0.94824753  0.51618956  0.50062952
Direct configuration=     5
   0.61956787  0.39802502  0.48689597
   0.18901700  0.46601576  0.02416040
   0.70677979  0.51007111  0.07695338
   0.70617694  0.05481568  0.12376986
   0.19692204  0.10292406  0.17472969
   0.70769258  0.15066818  0.22567874
   0.20778193  0.19561535  0.27260084
   0.69581653  0.24081191  0.32537444
   0.23533758  0.30952970  0.37650061
   0.75261290  0.32385110  0.42322347
   0.28954945  0.28072568  0.47509750
   0.54040223  0.24231261  0.05101138
   0.04815577  0.28322294  0.09945739
   0.54937206  0.32753633  0.15065178
   0.05003969  0.37868101  0.19925936
   0.54971611  0.42281011  0.25066654
   0.04496926  0.46525300  0.29874114
   0.56435562  0.52478977  0.34910359
   0.49427556  0.07739316  0.40384898
   0.98608541  0.06234960  0.44706605
   0.68896487  0.96588335  0.02418583
   0.20690885  0.01005764  0.07687109
   0.20625220  0.55482737  0.12375066
   0.69634243  0.60321925  0.17504817
   0.20663319  0.65120594  0.22581297
   0.70734549  0.69577466  0.27358494
   0.19452982  0.74128170  0.32554350
   0.72617068  0.80761140  0.37752201
   0.24325271  0.82856558  0.42236901
   0.79763912  0.78746507  0.47660995
   0.04010000  0.74227649  0.05100459
   0.54830428  0.78314389  0.09956292
   0.04916106  0.82733643  0.15061909
   0.54973224  0.87834770  0.19948550
   0.04883369  0.92271283  0.25052771
   0.54227623  0.96513529  0.29912123
   0.05729978  0.02617084  0.34827444
   0.00190929  0.57734958  0.40319402
   0.48525500  0.56812783  0.44875021
   0.73011234  0.39569913  0.97212469
   0.23997608  0.37858193  0.92844508
   0.30035406  0.92355220  0.87344876
   0.78860100  0.98011019  0.82483318
   0.29556555  0.01931877  0.77567302
   0.79665616  0.06248341  0.72484486
   0.29586647  0.10799004  0.67499798
   0.79489615  0.15119642  0.62484891
   0.29580328  0.19268614  0.57467221
   0.79088922  0.23176654  0.52201518
   0.49008219  0.12925199  0.94600112
   0.98342091  0.14294968  0.90345394
   0.44100351  0.20511962  0.85031542
   0.95638600  0.24700283  0.79878307
   0.45341425  0.29054702  0.75099206
   0.94897698  0.33608815  0.70007716
   0.45125396  0.38082079  0.65004623
   0.45400190  0.92332495  0.60063382
   0.95517748  0.96749988  0.55199230
   0.23033575  0.89567641  0.97204374
   0.74002760  0.87868006  0.92846618
   0.79996793  0.42327345  0.87345643
   0.28829702  0.48004150  0.82504807
   0.79562020  0.51896877  0.77581742
   0.29612406  0.56230813  0.72500944
   0.79482333  0.60794323  0.67571967
   0.29635296  0.65065849  0.62590009
   0.79725765  0.69359962  0.57592475
   0.29114814  0.73590287  0.52526881
   0.99008499  0.62921492  0.94604839
   0.48310402  0.64296771  0.90359242
   0.94129955  0.70512101  0.85049683
   0.45657161  0.74688832  0.79896435
   0.95404151  0.79046044  0.75131172
   0.44913192  0.83629096  0.70064339
   0.95171079  0.87988544  0.65048930
   0.95215035  0.42557930  0.60027920
   0.45325725  0.47023066  0.54869584
   0.05853416  0.18120927  0.00187693
   0.55854425  0.68115149  0.00205239
   0.44267846  0.00927307  0.50076645
   0.94937935  0.51654411  0.50065251
Direct configuration=     6
   0.61899330  0.39781429  0.48686518
   0.18864919  0.46622896  0.02409760
   0.70669835  0.51008850  0.07704424
   0.70642415  0.05489580  0.12380286
   0.19650373  0.10293463  0.17475244
   0.70792236  0.15065272  0.22568356
   0.20764785  0.19562986  0.27257136
   0.69564783  0.24078246  0.32554113
   0.23549421  0.30978005  0.37648070
   0.75244571  0.32382853  0.42320470
   0.29016798  0.28083167  0.47507849
   0.54087078  0.24252381  0.05098368
   0.04788987  0.28330152  0.09947068
   0.54962175  0.32734433  0.15069105
   0.05025598  0.37882705  0.19923614
   0.54949857  0.42272474  0.25068091
   0.04550171  0.46511785  0.29875579
   0.56398940  0.52500312  0.34921629
   0.49433702  0.07759950  0.40395943
   0.98611912  0.06214616  0.44698701
   0.68863294  0.96611640  0.02413080
   0.20678300  0.01007236  0.07695971
   0.20644984  0.55492551  0.12378039
   0.69593924  0.60319122  0.17505960
   0.20678367  0.65115787  0.22578380
   0.70717591  0.69579475  0.27352021
   0.19424112  0.74103947  0.32561563
   0.72645749  0.80784227  0.37751712
   0.24318717  0.82844346  0.42235365
   0.79739945  0.78772283  0.47663618
   0.04056807  0.74249697  0.05098020
   0.54798302  0.78321742  0.09957861
   0.04941178  0.82713445  0.15066071
   0.54994970  0.87853856  0.19946364
   0.04856387  0.92267496  0.25051511
   0.54282675  0.96509039  0.29916832
   0.05732985  0.02641941  0.34826698
   0.00192257  0.57736274  0.40317273
   0.48536933  0.56820097  0.44873201
   0.73045920  0.39544062  0.97209385
   0.24006291  0.37856505  0.92850503
   0.30021569  0.92335754  0.87340715
   0.78882117  0.98029698  0.82482757
   0.29535298  0.01939375  0.77567519
   0.79707704  0.06232739  0.72480064
   0.29599690  0.10807960  0.67493692
   0.79507835  0.15136982  0.62487074
   0.29592166  0.19245246  0.57474826
   0.79052633  0.23154727  0.52194747
   0.49004722  0.12912134  0.94593482
   0.98368203  0.14275647  0.90346904
   0.44077407  0.20540540  0.85034826
   0.95612416  0.24700991  0.79869993
   0.45352752  0.29056461  0.75095502
   0.94866673  0.33611909  0.70004549
   0.45112768  0.38071331  0.64998419
   0.45398680  0.92320281  0.60067621
   0.95500650  0.96774031  0.55204424
   0.23065027  0.89543274  0.97201660
   0.74013449  0.87865697  0.92852994
   0.79977363  0.42307815  0.87341170
   0.28849081  0.48023374  0.82504749
   0.79551891  0.51898714  0.77582056
   0.29649062  0.56211735  0.72495886
   0.79516701  0.60804292  0.67567602
   0.29651318  0.65053325  0.62585345
   0.79686115  0.69339341  0.57594188
   0.29158569  0.73602011  0.52531209
   0.98997219  0.62909977  0.94598837
   0.48337659  0.64280603  0.90360252
   0.94097901  0.70537340  0.85051590
   0.45635975  0.74689680  0.79888621
   0.95415895  0.79046333  0.75126794
   0.44869433  0.83635281  0.70062317
   0.95160480  0.87980805  0.65048454
   0.95185639  0.42549803  0.60027150
   0.45306067  0.47052163  0.54875114
   0.05845662  0.18089278  0.00188230
   0.55845436  0.68084352  0.00205124
   0.44273025  0.00909221  0.50078760
   0.94941937  0.51664836  0.50070254
Direct configuration=     7
   0.61842913  0.39760739  0.48683494
   0.18828804  0.46643831  0.02403594
   0.70661839  0.51010556  0.07713344
   0.70666688  0.05497448  0.12383525
   0.19609299  0.10294502  0.17477478
   0.70814799  0.15063754  0.22568829
   0.20751620  0.19564412  0.27254241
   0.69548219  0.24075355  0.32570480
   0.23564800  0.31002586  0.37646115
   0.75228155  0.32380638  0.42318628
   0.29077532  0.28093574  0.47505982
   0.54133085  0.24273119  0.05095648
   0.04762878  0.28337868  0.09948372
   0.54986691  0.32715581  0.15072960
   0.05046836  0.37897045  0.19921335
   0.54928497  0.42264092  0.25069502
   0.04602452  0.46498514  0.29877018
   0.56362982  0.52521260  0.34932694
   0.49439736  0.07780210  0.40406788
   0.98615222  0.06194640  0.44690940
   0.68830702  0.96634523  0.02407676
   0.20665943  0.01008682  0.07704672
   0.20664391  0.55502188  0.12380959
   0.69554336  0.60316369  0.17507083
   0.20693141  0.65111067  0.22575517
   0.70700941  0.69581448  0.27345666
   0.19395764  0.74080162  0.32568646
   0.72673910  0.80806896  0.37751231
   0.24312282  0.82832356  0.42233856
   0.79716413  0.78797591  0.47666193
   0.04102766  0.74271346  0.05095625
   0.54766758  0.78328963  0.09959402
   0.04965795  0.82693613  0.15070158
   0.55016322  0.87872596  0.19944218
   0.04829893  0.92263778  0.25050273
   0.54336730  0.96504630  0.29921456
   0.05735939  0.02666348  0.34825966
   0.00193560  0.57737567  0.40315182
   0.48548159  0.56827279  0.44871414
   0.73079977  0.39518679  0.97206357
   0.24014815  0.37854847  0.92856390
   0.30007983  0.92316640  0.87336630
   0.78903735  0.98048039  0.82482206
   0.29514427  0.01946737  0.77567732
   0.79749029  0.06217420  0.72475722
   0.29612497  0.10816753  0.67487698
   0.79525726  0.15154008  0.62489218
   0.29603790  0.19222301  0.57482294
   0.79017002  0.23133198  0.52188099
   0.49001289  0.12899306  0.94586973
   0.98393842  0.14256676  0.90348386
   0.44054879  0.20568601  0.85038050
   0.95586707  0.24701687  0.79861830
   0.45363874  0.29058189  0.75091865
   0.94836209  0.33614948  0.70001439
   0.45100369  0.38060776  0.64992327
   0.45397197  0.92308288  0.60071783
   0.95483860  0.96797638  0.55209524
   0.23095909  0.89519348  0.97198995
   0.74023945  0.87863430  0.92859255
   0.79958285  0.42288640  0.87336778
   0.28868109  0.48042251  0.82504692
   0.79541945  0.51900519  0.77582364
   0.29685054  0.56193003  0.72490919
   0.79550445  0.60814081  0.67563315
   0.29667050  0.65041028  0.62580766
   0.79647183  0.69319093  0.57595870
   0.29201531  0.73613524  0.52535459
   0.98986144  0.62898670  0.94592945
   0.48364423  0.64264728  0.90361244
   0.94066427  0.70562123  0.85053463
   0.45615172  0.74690512  0.79880950
   0.95427427  0.79046616  0.75122496
   0.44826466  0.83641353  0.70060332
   0.95150073  0.87973206  0.65047986
   0.95156775  0.42541823  0.60026394
   0.45286765  0.47080733  0.54880544
   0.05838047  0.18058202  0.00188758
   0.55836610  0.68054111  0.00205011
   0.44278111  0.00891463  0.50080837
   0.94945866  0.51675073  0.50075165
Direct configuration=     8
   0.61912231  0.39790371  0.48687803
   0.18769417  0.46653985  0.02399120
   0.70673807  0.51041600  0.07726431
   0.70707190  0.05495501  0.12381928
   0.19579191  0.10298271  0.17480814
   0.70856858  0.15074634  0.22576790
   0.20753570  0.19546280  0.27249964
   0.69520271  0.24085972  0.32587514
   0.23600525  0.31025728  0.37649487
   0.75235812  0.32407342  0.42313175
   0.29001206  0.28063178  0.47505912
   0.54130612  0.24299085  0.05094431
   0.04760138  0.28350300  0.09949355
   0.54982528  0.32691364  0.15075869
   0.05047809  0.37914017  0.19922418
   0.54919202  0.42249848  0.25073940
   0.04608452  0.46487124  0.29876594
   0.56352116  0.52554722  0.34944777
   0.49412095  0.07801489  0.40420725
   0.98642932  0.06185966  0.44684171
   0.68773813  0.96646537  0.02403866
   0.20677877  0.01039966  0.07718239
   0.20702262  0.55500183  0.12378971
   0.69522401  0.60315528  0.17509427
   0.20728400  0.65114164  0.22577951
   0.70690823  0.69555892  0.27339362
   0.19366699  0.74074031  0.32572930
   0.72719711  0.80842012  0.37755156
   0.24317538  0.82825221  0.42230010
   0.79704763  0.78817470  0.47669719
   0.04098426  0.74298031  0.05094677
   0.54758986  0.78342354  0.09960838
   0.04959775  0.82672140  0.15072450
   0.55012288  0.87896638  0.19945068
   0.04829849  0.92254206  0.25050563
   0.54348081  0.96499040  0.29924543
   0.05782512  0.02698062  0.34828926
   0.00176204  0.57741349  0.40315636
   0.48581219  0.56831269  0.44873010
   0.73136907  0.39480736  0.97197686
   0.24014914  0.37838686  0.92863814
   0.30030637  0.92297269  0.87333191
   0.78872676  0.98070423  0.82479682
   0.29502420  0.01959395  0.77568485
   0.79769482  0.06201810  0.72469623
   0.29611648  0.10822415  0.67480388
   0.79512652  0.15159853  0.62493749
   0.29611261  0.19199569  0.57484526
   0.78985689  0.23125305  0.52179122
   0.48994261  0.12873849  0.94577111
   0.98428396  0.14233818  0.90352383
   0.44010204  0.20590302  0.85040388
   0.95585790  0.24722100  0.79849956
   0.45389619  0.29049476  0.75087536
   0.94813070  0.33619942  0.69998287
   0.45096667  0.38060038  0.64982332
   0.45423054  0.92301545  0.60080390
   0.95480574  0.96796530  0.55217172
   0.23151742  0.89485382  0.97191023
   0.74027112  0.87846129  0.92867108
   0.79975722  0.42269430  0.87332978
   0.28838846  0.48064420  0.82503201
   0.79536250  0.51908127  0.77581890
   0.29710774  0.56172000  0.72484018
   0.79561212  0.60821611  0.67557710
   0.29643841  0.65026337  0.62576198
   0.79627450  0.69311850  0.57597654
   0.29200892  0.73628745  0.52539152
   0.98974373  0.62873611  0.94582722
   0.48394463  0.64245189  0.90365310
   0.94016208  0.70580805  0.85054545
   0.45615962  0.74711999  0.79868205
   0.95449705  0.79035423  0.75119598
   0.44790234  0.83640989  0.70058391
   0.95163074  0.87971849  0.65041051
   0.95153363  0.42534858  0.60025595
   0.45300800  0.47081319  0.54880642
   0.05865939  0.18017553  0.00187182
   0.55860109  0.68015286  0.00203223
   0.44246170  0.00881842  0.50082947
   0.94850009  0.51666694  0.50076498
Direct configuration=     9
   0.61988383  0.39822926  0.48692536
   0.18704176  0.46665140  0.02394206
   0.70686954  0.51075703  0.07740808
   0.70751684  0.05493362  0.12380174
   0.19546114  0.10302413  0.17484480
   0.70903063  0.15086588  0.22585535
   0.20755714  0.19526360  0.27245264
   0.69489569  0.24097635  0.32606227
   0.23639772  0.31051153  0.37653191
   0.75244224  0.32436679  0.42307184
   0.28917354  0.28029785  0.47505836
   0.54127895  0.24327611  0.05093095
   0.04757128  0.28363957  0.09950435
   0.54977954  0.32664760  0.15079065
   0.05048877  0.37932663  0.19923609
   0.54908991  0.42234199  0.25078816
   0.04615044  0.46474611  0.29876128
   0.56340179  0.52591483  0.34958050
   0.49381729  0.07824867  0.40436035
   0.98673373  0.06176437  0.44676735
   0.68711315  0.96659735  0.02399681
   0.20690988  0.01074333  0.07733143
   0.20743866  0.55497981  0.12376787
   0.69487317  0.60314603  0.17512003
   0.20767134  0.65117565  0.22580626
   0.70679709  0.69527817  0.27332437
   0.19334768  0.74067295  0.32577637
   0.72770028  0.80880589  0.37759468
   0.24323313  0.82817383  0.42225785
   0.79691965  0.78839309  0.47673592
   0.04093658  0.74327348  0.05093636
   0.54750448  0.78357066  0.09962416
   0.04953161  0.82648551  0.15074968
   0.55007856  0.87923049  0.19946002
   0.04829800  0.92243690  0.25050882
   0.54360551  0.96492898  0.29927934
   0.05833676  0.02732902  0.34832177
   0.00157137  0.57745503  0.40316134
   0.48617537  0.56835653  0.44874762
   0.73199449  0.39439053  0.97188160
   0.24015022  0.37820932  0.92871970
   0.30055525  0.92275989  0.87329414
   0.78838554  0.98095013  0.82476909
   0.29489230  0.01973302  0.77569313
   0.79791951  0.06184662  0.72462923
   0.29610716  0.10828636  0.67472358
   0.79498290  0.15166274  0.62498728
   0.29619469  0.19174596  0.57486979
   0.78951290  0.23116634  0.52169260
   0.48986540  0.12845883  0.94566276
   0.98466356  0.14208707  0.90356774
   0.43961125  0.20614143  0.85042958
   0.95584783  0.24744526  0.79836911
   0.45417902  0.29039903  0.75082779
   0.94787649  0.33625430  0.69994823
   0.45092601  0.38059226  0.64971351
   0.45451461  0.92294138  0.60089844
   0.95476964  0.96795314  0.55225575
   0.23213079  0.89448067  0.97182266
   0.74030591  0.87827123  0.92875735
   0.79994879  0.42248327  0.87328803
   0.28806698  0.48088774  0.82501564
   0.79529993  0.51916485  0.77581369
   0.29739029  0.56148926  0.72476436
   0.79573041  0.60829884  0.67551553
   0.29618345  0.65010198  0.62571180
   0.79605770  0.69303892  0.57599614
   0.29200191  0.73645467  0.52543208
   0.98961442  0.62846082  0.94571491
   0.48427464  0.64223724  0.90369777
   0.93961039  0.70601329  0.85055734
   0.45616830  0.74735605  0.79854204
   0.95474180  0.79023127  0.75116415
   0.44750431  0.83640589  0.70056259
   0.95177357  0.87970357  0.65033432
   0.95149614  0.42527207  0.60024717
   0.45316219  0.47081963  0.54880749
   0.05896582  0.17972897  0.00185450
   0.55885925  0.67972634  0.00201258
   0.44211081  0.00871272  0.50085265
   0.94744702  0.51657490  0.50077963
Direct configuration=    10
   0.61958721  0.39817057  0.48692401
   0.18658671  0.46667610  0.02392802
   0.70698953  0.51095390  0.07749404
   0.70776219  0.05492465  0.12377196
   0.19528214  0.10305096  0.17486739
   0.70929224  0.15093178  0.22592519
   0.20761176  0.19515281  0.27242255
   0.69466803  0.24105190  0.32614008
   0.23662900  0.31064732  0.37657293
   0.75236703  0.32453185  0.42306648
   0.28921575  0.28034019  0.47507827
   0.54119820  0.24345967  0.05093012
   0.04758058  0.28371944  0.09950859
   0.54972563  0.32652285  0.15080739
   0.05046896  0.37941532  0.19925026
   0.54903449  0.42226210  0.25082223
   0.04609614  0.46467181  0.29875952
   0.56345952  0.52612713  0.34962854
   0.49368699  0.07838279  0.40445254
   0.98678324  0.06174434  0.44673297
   0.68667098  0.96662980  0.02398609
   0.20704631  0.01094280  0.07742123
   0.20767201  0.55496181  0.12373559
   0.69468921  0.60315191  0.17514016
   0.20788576  0.65119379  0.22584038
   0.70678781  0.69511967  0.27328770
   0.19312712  0.74069847  0.32578764
   0.72798888  0.80904978  0.37763225
   0.24329839  0.82814088  0.42222979
   0.79695310  0.78848460  0.47675914
   0.04083808  0.74345916  0.05093708
   0.54749677  0.78365774  0.09963220
   0.04945713  0.82638692  0.15075975
   0.55003557  0.87935352  0.19947200
   0.04832472  0.92236866  0.25051858
   0.54361404  0.96487032  0.29928555
   0.05872117  0.02751270  0.34834386
   0.00152520  0.57752396  0.40318717
   0.48613134  0.56838561  0.44875303
   0.73233610  0.39413182  0.97181586
   0.24013807  0.37806057  0.92877041
   0.30083931  0.92266090  0.87327320
   0.78813726  0.98109758  0.82474397
   0.29482815  0.01980631  0.77569673
   0.79797035  0.06175994  0.72459292
   0.29603367  0.10830854  0.67468879
   0.79484068  0.15166200  0.62501151
   0.29624783  0.19166197  0.57486762