 running on   40 total cores
 distrk:  each k-point on   40 cores,    1 groups
 distr:  one band on    1 cores,   40 groups
 using from now: INCAR     
 vasp.6.1.1 19Jun20 (build Jan 13 2022 18:23:11) complex                        
  
 POSCAR found type information on POSCAR O Ti
 POSCAR found :  2 types and      81 ions
 scaLAPACK will be used
 -----------------------------------------------------------------------------
|                                                                             |
|           W    W    AA    RRRRR   N    N  II  N    N   GGGG   !!!           |
|           W    W   A  A   R    R  NN   N  II  NN   N  G    G  !!!           |
|           W    W  A    A  R    R  N N  N  II  N N  N  G       !!!           |
|           W WW W  AAAAAA  RRRRR   N  N N  II  N  N N  G  GGG   !            |
|           WW  WW  A    A  R   R   N   NN  II  N   NN  G    G                |
|           W    W  A    A  R    R  N    N  II  N    N   GGGG   !!!           |
|                                                                             |
|     For optimal performance we recommend to set                             |
|       NCORE = 4 - approx SQRT(number of cores).                             |
|     NCORE specifies how many cores store one orbital (NPAR=cpu/NCORE).      |
|     This setting can greatly improve the performance of VASP for DFT.       |
|     The default, NCORE=1 might be grossly inefficient on modern             |
|     multi-core architectures or massively parallel machines. Do your        |
|     own testing!!!!                                                         |
|     Unfortunately you need to use the default for GW and RPA                |
|     calculations (for HF NCORE is supported but not extensively tested      |
|     yet).                                                                   |
|                                                                             |
 -----------------------------------------------------------------------------

 -----------------------------------------------------------------------------
|                                                                             |
|               ----> ADVICE to this user running VASP <----                  |
|                                                                             |
|     You have a (more or less) 'large supercell' and for larger cells it     |
|     might be more efficient to use real-space projection operators.         |
|     Therefore, try LREAL= Auto in the INCAR file.                           |
|     Mind: For very accurate calculation, you might also keep the            |
|     reciprocal projection scheme (i.e. LREAL=.FALSE.).                      |
|                                                                             |
 -----------------------------------------------------------------------------

 LDA part: xc-table for Pade appr. of Perdew
 POSCAR, INCAR and KPOINTS ok, starting setup
 FFT: planning ...
 WAVECAR not read
 WARNING: random wavefunctions but no delay for mixing, default for NELMDL
 entering main loop
       N       E                     dE             d eps       ncg     rms          rms(c)
DAV:   1     0.133076257058E+05    0.13308E+05   -0.40903E+05  9720   0.173E+03
DAV:   2     0.133905468619E+04   -0.11969E+05   -0.11694E+05  9600   0.583E+02
DAV:   3    -0.401418355244E+03   -0.17405E+04   -0.16442E+04 14400   0.195E+02
DAV:   4    -0.695496130885E+03   -0.29408E+03   -0.28934E+03 13760   0.683E+01
DAV:   5    -0.722265463095E+03   -0.26769E+02   -0.26643E+02 15160   0.172E+01    0.755E+01
DAV:   6    -0.639906682804E+03    0.82359E+02   -0.34858E+02 12760   0.424E+01    0.247E+01
DAV:   7    -0.134613647353E+04   -0.70623E+03   -0.25539E+03 15000   0.872E+01    0.115E+02
DAV:   8    -0.783326486269E+03    0.56281E+03   -0.13809E+03 15080   0.514E+01    0.107E+02
DAV:   9    -0.612210997380E+03    0.17112E+03   -0.69396E+02 14680   0.286E+01    0.189E+01
DAV:  10    -0.656953663432E+03   -0.44743E+02   -0.27666E+02 14840   0.272E+01    0.363E+01
DAV:  11    -0.635810201405E+03    0.21143E+02   -0.90724E+01 14960   0.159E+01    0.148E+01
DAV:  12    -0.635606874041E+03    0.20333E+00   -0.16676E+01 14360   0.943E+00    0.117E+01
DAV:  13    -0.637531756356E+03   -0.19249E+01   -0.12315E+01 13640   0.114E+01    0.130E+01
DAV:  14    -0.636986351896E+03    0.54540E+00   -0.16379E+01 14360   0.123E+01    0.998E+00
DAV:  15    -0.635720240759E+03    0.12661E+01   -0.10178E+01 14400   0.921E+00    0.609E+00
DAV:  16    -0.635406457931E+03    0.31378E+00   -0.41188E+00 13480   0.660E+00    0.455E+00
DAV:  17    -0.635089024318E+03    0.31743E+00   -0.15524E+00 13960   0.418E+00    0.168E+00
DAV:  18    -0.635097552155E+03   -0.85278E-02   -0.33051E-01 13560   0.158E+00    0.134E+00
DAV:  19    -0.635095328380E+03    0.22238E-02   -0.10133E-01 12800   0.112E+00    0.912E-01
DAV:  20    -0.635096505344E+03   -0.11770E-02   -0.68684E-02 13320   0.958E-01    0.836E-01
DAV:  21    -0.635087088895E+03    0.94164E-02   -0.44887E-02 12720   0.792E-01    0.380E-01
DAV:  22    -0.635087046422E+03    0.42473E-04   -0.16486E-02 15280   0.410E-01    0.306E-01
DAV:  23    -0.635085733253E+03    0.13132E-02   -0.79420E-03 12800   0.315E-01    0.147E-01
DAV:  24    -0.635085778842E+03   -0.45590E-04   -0.23115E-03 13280   0.156E-01    0.141E-01
DAV:  25    -0.635085598279E+03    0.18056E-03   -0.84844E-04 12840   0.107E-01    0.917E-02
DAV:  26    -0.635085640309E+03   -0.42029E-04   -0.51761E-04 13400   0.798E-02    0.881E-02
DAV:  27    -0.635085585656E+03    0.54652E-04   -0.43118E-04 13200   0.802E-02    0.523E-02
DAV:  28    -0.635085557174E+03    0.28482E-04   -0.21966E-04 13000   0.496E-02    0.373E-02
DAV:  29    -0.635085535001E+03    0.22174E-04   -0.81273E-05  9720   0.328E-02    0.181E-02
DAV:  30    -0.635085535987E+03   -0.98611E-06   -0.19305E-05  7880   0.159E-02
   1 F= -.63508554E+03 E0= -.63503588E+03  d E =-.635086E+03
 curvature:   0.00 expect dE= 0.000E+00 dE for cont linesearch  0.000E+00
 trial: gam= 0.00000 g(F)=  0.226E-04 g(S)=  0.000E+00 ort = 0.000E+00 (trialstep = 0.100E+01)
 search vector abs. value=  0.226E-04
 bond charge predicted
       N       E                     dE             d eps       ncg     rms          rms(c)
DAV:   1    -0.635085426135E+03    0.10887E-03   -0.44859E-03 11560   0.298E-01    0.235E-02
DAV:   2    -0.635085641540E+03   -0.21541E-03   -0.16591E-03 11880   0.986E-02    0.611E-02
DAV:   3    -0.635085639864E+03    0.16762E-05   -0.12728E-03 14440   0.120E-01    0.537E-02
DAV:   4    -0.635085571133E+03    0.68731E-04   -0.45745E-04 12400   0.701E-02    0.248E-02
DAV:   5    -0.635085598982E+03   -0.27849E-04   -0.30593E-04  9360   0.515E-02    0.384E-02
DAV:   6    -0.635085556560E+03    0.42422E-04   -0.18740E-04  8560   0.430E-02    0.109E-02
DAV:   7    -0.635085555626E+03    0.93397E-06   -0.13203E-05  6840   0.154E-02
   2 F= -.63508556E+03 E0= -.63503589E+03  d E =-.196390E-04
 trial-energy change:   -0.000020  1 .order   -0.000018   -0.000023   -0.000013
 step:   2.3584(harm=  2.3584)  dis= 0.00045  next Energy=  -635.085563 (dE=-0.267E-04)
 reached required accuracy - stopping structural energy minimisation
 writing wavefunctions
