 running on   20 total cores
 distrk:  each k-point on   20 cores,    1 groups
 distr:  one band on    1 cores,   20 groups
 using from now: INCAR     
 vasp.6.1.1 19Jun20 (build Jan 13 2022 18:23:11) complex                        
  
 POSCAR found type information on POSCAR O Ti
 POSCAR found :  2 types and      81 ions
 scaLAPACK will be used
 -----------------------------------------------------------------------------
|                                                                             |
|           W    W    AA    RRRRR   N    N  II  N    N   GGGG   !!!           |
|           W    W   A  A   R    R  NN   N  II  NN   N  G    G  !!!           |
|           W    W  A    A  R    R  N N  N  II  N N  N  G       !!!           |
|           W WW W  AAAAAA  RRRRR   N  N N  II  N  N N  G  GGG   !            |
|           WW  WW  A    A  R   R   N   NN  II  N   NN  G    G                |
|           W    W  A    A  R    R  N    N  II  N    N   GGGG   !!!           |
|                                                                             |
|     For optimal performance we recommend to set                             |
|       NCORE = 4 - approx SQRT(number of cores).                             |
|     NCORE specifies how many cores store one orbital (NPAR=cpu/NCORE).      |
|     This setting can greatly improve the performance of VASP for DFT.       |
|     The default, NCORE=1 might be grossly inefficient on modern             |
|     multi-core architectures or massively parallel machines. Do your        |
|     own testing!!!!                                                         |
|     Unfortunately you need to use the default for GW and RPA                |
|     calculations (for HF NCORE is supported but not extensively tested      |
|     yet).                                                                   |
|                                                                             |
 -----------------------------------------------------------------------------

 -----------------------------------------------------------------------------
|                                                                             |
|               ----> ADVICE to this user running VASP <----                  |
|                                                                             |
|     You have a (more or less) 'large supercell' and for larger cells it     |
|     might be more efficient to use real-space projection operators.         |
|     Therefore, try LREAL= Auto in the INCAR file.                           |
|     Mind: For very accurate calculation, you might also keep the            |
|     reciprocal projection scheme (i.e. LREAL=.FALSE.).                      |
|                                                                             |
 -----------------------------------------------------------------------------

 LDA part: xc-table for Pade appr. of Perdew
 POSCAR, INCAR and KPOINTS ok, starting setup
 FFT: planning ...
 WAVECAR not read
 WARNING: random wavefunctions but no delay for mixing, default for NELMDL
 entering main loop
       N       E                     dE             d eps       ncg     rms          rms(c)
DAV:   1     0.137058716349E+05    0.13706E+05   -0.40741E+05  9320   0.180E+03
DAV:   2     0.145868109700E+04   -0.12247E+05   -0.12008E+05  9280   0.613E+02
DAV:   3    -0.321347279977E+03   -0.17800E+04   -0.16890E+04 13740   0.206E+02
DAV:   4    -0.683999941726E+03   -0.36265E+03   -0.35556E+03 13680   0.721E+01
DAV:   5    -0.719094899397E+03   -0.35095E+02   -0.34798E+02 14700   0.207E+01    0.762E+01
DAV:   6    -0.638785653295E+03    0.80309E+02   -0.35010E+02 12040   0.444E+01    0.256E+01
DAV:   7    -0.185640000778E+04   -0.12176E+04   -0.63524E+03 13960   0.118E+02    0.182E+02
DAV:   8    -0.541620640323E+03    0.13148E+04   -0.29517E+03 13140   0.511E+01    0.622E+01
DAV:   9    -0.614615251727E+03   -0.72995E+02   -0.12148E+03 13560   0.350E+01    0.178E+01
DAV:  10    -0.636664883404E+03   -0.22050E+02   -0.23295E+02 13300   0.207E+01    0.194E+01
DAV:  11    -0.637374317366E+03   -0.70943E+00   -0.59710E+01 14040   0.153E+01    0.188E+01
DAV:  12    -0.634972694052E+03    0.24016E+01   -0.24855E+01 13560   0.117E+01    0.145E+01
DAV:  13    -0.637264349429E+03   -0.22917E+01   -0.17558E+01 13540   0.108E+01    0.158E+01
DAV:  14    -0.635440631754E+03    0.18237E+01   -0.21996E+01 13480   0.115E+01    0.989E+00
DAV:  15    -0.634434169478E+03    0.10065E+01   -0.11073E+01 12660   0.954E+00    0.598E+00
DAV:  16    -0.634002617727E+03    0.43155E+00   -0.43250E+00 12580   0.599E+00    0.353E+00
DAV:  17    -0.633887352053E+03    0.11527E+00   -0.10580E+00 13060   0.335E+00    0.219E+00
DAV:  18    -0.633882638838E+03    0.47132E-02   -0.31820E-01 13360   0.194E+00    0.188E+00
DAV:  19    -0.633870910000E+03    0.11729E-01   -0.12913E-01 12460   0.145E+00    0.150E+00
DAV:  20    -0.633865261340E+03    0.56487E-02   -0.12505E-01 12500   0.131E+00    0.136E+00
DAV:  21    -0.633846353226E+03    0.18908E-01   -0.71295E-02 12380   0.922E-01    0.915E-01
DAV:  22    -0.633848948735E+03   -0.25955E-02   -0.50551E-02 12440   0.792E-01    0.872E-01
DAV:  23    -0.633845345116E+03    0.36036E-02   -0.31659E-02 12340   0.660E-01    0.689E-01
DAV:  24    -0.633841776753E+03    0.35684E-02   -0.16334E-02 12600   0.395E-01    0.491E-01
DAV:  25    -0.633837014074E+03    0.47627E-02   -0.15632E-02 15440   0.342E-01    0.184E-01
DAV:  26    -0.633837020207E+03   -0.61328E-05   -0.37847E-03 12900   0.172E-01    0.129E-01
DAV:  27    -0.633836933880E+03    0.86327E-04   -0.11651E-03 12460   0.117E-01    0.721E-02
DAV:  28    -0.633836990831E+03   -0.56951E-04   -0.62482E-04 12360   0.924E-02    0.781E-02
DAV:  29    -0.633836957774E+03    0.33057E-04   -0.48004E-04 12200   0.822E-02    0.527E-02
DAV:  30    -0.633836952967E+03    0.48064E-05   -0.32067E-04 11480   0.645E-02    0.480E-02
DAV:  31    -0.633836916243E+03    0.36725E-04   -0.16665E-04  9780   0.467E-02    0.154E-02
DAV:  32    -0.633836919813E+03   -0.35704E-05   -0.31341E-05  8200   0.179E-02
   1 F= -.63383692E+03 E0= -.63378328E+03  d E =-.107285E+00
 writing wavefunctions
