unknown system                          
           1
    26.079585    0.000000    0.000000
     0.000000    5.110600    0.000000
     0.000000    0.000000   11.062900
   O    Ti
     1    80
Direct configuration=     1
   0.42394499  0.25204103  0.39376191
   0.44632322  0.07674134  0.23118701
   0.39691505  0.57700784  0.29780254
   0.24974623  0.08683124  0.01521435
   0.34743592  0.08091585  0.37086051
   0.20023045  0.58196031  0.08437553
   0.29775908  0.58924655  0.44383353
   0.15093935  0.08147783  0.15869040
   0.10221474  0.58396779  0.22831287
   0.05448455  0.07871696  0.29579307
   0.55620238  0.92195373  0.48667999
   0.60292924  0.41767569  0.05209960
   0.75043080  0.91341022  0.26645830
   0.65200447  0.92070300  0.12262071
   0.79928156  0.41694205  0.33581213
   0.70112446  0.41767160  0.19737322
   0.84847443  0.92004149  0.41050151
   0.89779362  0.41858459  0.47978531
   0.94516075  0.92131646  0.04855653
   0.44695564  0.92174548  0.49061605
   0.39819447  0.41739598  0.05295506
   0.24906433  0.91455289  0.26517413
   0.34840904  0.92012137  0.12420079
   0.20015908  0.41767503  0.33518476
   0.29806990  0.41821115  0.19751324
   0.15140202  0.92083467  0.40907085
   0.10194023  0.41981245  0.47857336
   0.05464955  0.92086417  0.04562514
   0.55598878  0.08472196  0.23508459
   0.60261921  0.58156442  0.30201094
   0.75006374  0.08734677  0.01649094
   0.65255808  0.07790370  0.37290653
   0.79919945  0.58237986  0.08588093
   0.70152468  0.58376263  0.44682297
   0.84846259  0.07989611  0.16046108
   0.89771468  0.58176292  0.22990441
   0.94507038  0.08011930  0.29855699
   0.50118843  0.56777168  0.15891853
   0.49950407  0.42671729  0.41301167
   0.99939016  0.57185628  0.37067654
   0.00020603  0.43185114  0.12040409
   0.44455236  0.07925645  0.73659130
   0.39719946  0.58001533  0.80380844
   0.25003807  0.08752829  0.51397472
   0.34766489  0.07965692  0.87408610
   0.20079234  0.58294684  0.58487444
   0.29867778  0.58488167  0.94651873
   0.15148410  0.08185144  0.65805700
   0.10241154  0.58340038  0.72809073
   0.05470328  0.07902660  0.79580610
   0.55469682  0.92201042  0.98675161
   0.60312166  0.41487436  0.55301065
   0.75033890  0.91316899  0.76705716
   0.65217058  0.91900062  0.62318132
   0.79932891  0.41665622  0.83610499
   0.70115955  0.41663437  0.69723222
   0.84849698  0.92035429  0.91075817
   0.89784408  0.41838819  0.97981141
   0.94511296  0.92084112  0.54866003
   0.44502322  0.91681496  0.98334367
   0.39856817  0.42246912  0.55620315
   0.24969872  0.91380801  0.76566642
   0.34810824  0.91738067  0.62647545
   0.20101966  0.41750396  0.83523692
   0.29909409  0.41687602  0.69710699
   0.15153486  0.92170903  0.90881552
   0.10196461  0.41891683  0.97824414
   0.05461567  0.92113609  0.54620941
   0.55492578  0.07884113  0.73585319
   0.60251172  0.58204758  0.80161043
   0.75027910  0.08665496  0.51681989
   0.65166340  0.07774417  0.87220979
   0.79922086  0.58257110  0.58620321
   0.70133665  0.58261841  0.94663853
   0.84847237  0.07937537  0.66070242
   0.89776904  0.58149067  0.73006513
   0.94517515  0.07962125  0.79842425
   0.49982647  0.56205759  0.66217040
   0.49983725  0.42681972  0.91162092
   0.99974124  0.57187319  0.87025815
   0.00006956  0.43358473  0.62033431
Direct configuration=     2
   0.42395391  0.25197146  0.39368384
   0.44616612  0.07704724  0.23165664
   0.39697528  0.57594061  0.29779628
   0.24975208  0.08598397  0.01522602
   0.34788003  0.08080885  0.37108566
   0.20029702  0.58108699  0.08437561
   0.29770009  0.58806335  0.44391043
   0.15092848  0.08085655  0.15853935
   0.10225224  0.58367058  0.22827281
   0.05445208  0.07869803  0.29578187
   0.55611050  0.92222609  0.48661529
   0.60294483  0.41787755  0.05220341
   0.75043228  0.91427453  0.26646747
   0.65201080  0.92120922  0.12267999
   0.79923083  0.41785765  0.33584189
   0.70118344  0.41859480  0.19735510
   0.84845593  0.92064012  0.41040401
   0.89775562  0.41882882  0.47972160
   0.94519662  0.92152273  0.04853593
   0.44700636  0.92269299  0.49061231
   0.39819615  0.41743468  0.05300458
   0.24908860  0.91550332  0.26525608
   0.34848172  0.92086931  0.12438543
   0.20022862  0.41855943  0.33520580
   0.29797924  0.41939219  0.19755536
   0.15142974  0.92146295  0.40893420
   0.10201345  0.42006753  0.47853331
   0.05461597  0.92107052  0.04560370
   0.55589367  0.08467090  0.23524332
   0.60269698  0.58117364  0.30216108
   0.75006932  0.08638710  0.01649885
   0.65254605  0.07749360  0.37303181
   0.79913355  0.58147754  0.08592286
   0.70159596  0.58280865  0.44682971
   0.84846586  0.07935620  0.16034401
   0.89768566  0.58150205  0.22980398
   0.94508515  0.07995157  0.29851390
   0.50122706  0.56652109  0.15883760
   0.49892298  0.42680508  0.41289835
   0.99938083  0.57090387  0.37074807
   0.00021363  0.43271970  0.12045397
   0.44457277  0.07906985  0.73660532
   0.39715623  0.57976935  0.80393600
   0.25001136  0.08675278  0.51390979
   0.34764271  0.07905712  0.87414851
   0.20081567  0.58216546  0.58489344
   0.29858246  0.58407490  0.94644623
   0.15149843  0.08130751  0.65798670
   0.10246532  0.58319939  0.72802558
   0.05466971  0.07895780  0.79580200
   0.55464868  0.92229550  0.98675517
   0.60314654  0.41509303  0.55305339
   0.75033288  0.91400323  0.76700657
   0.65215800  0.91951082  0.62327517
   0.79927260  0.41757121  0.83609958
   0.70122202  0.41757474  0.69719497
   0.84848043  0.92094905  0.91066474
   0.89780130  0.41856485  0.97979680
   0.94514307  0.92105135  0.54861633
   0.44505340  0.91711619  0.98332233
   0.39878666  0.42232557  0.55578294
   0.24970441  0.91468263  0.76565596
   0.34807959  0.91795797  0.62654723
   0.20107747  0.41827074  0.83523107
   0.29908952  0.41773874  0.69707157
   0.15156377  0.92224080  0.90870598
   0.10199672  0.41919399  0.97815972
   0.05458668  0.92125566  0.54614000
   0.55490800  0.07861976  0.73589863
   0.60256298  0.58182900  0.80163424
   0.75028924  0.08581284  0.51682236
   0.65167571  0.07716901  0.87232824
   0.79915539  0.58165418  0.58623097
   0.70139899  0.58178051  0.94661030
   0.84845714  0.07883088  0.66057599
   0.89773950  0.58131508  0.73000522
   0.94519132  0.07950759  0.79838179
   0.49977710  0.56147064  0.66212680
   0.49982947  0.42753013  0.91149145
   0.99973543  0.57088119  0.87042168
   0.00006645  0.43434577  0.62045781
Direct configuration=     3
   0.42397172  0.25183264  0.39352805
   0.44585261  0.07765770  0.23259382
   0.39709546  0.57381085  0.29778379
   0.24976374  0.08429317  0.01524931
   0.34876631  0.08059530  0.37153497
   0.20042988  0.57934420  0.08437577
   0.29758236  0.58570215  0.44406387
   0.15090678  0.07961671  0.15823793
   0.10232706  0.58307748  0.22819287
   0.05438730  0.07866025  0.29575953
   0.55592714  0.92276962  0.48648618
   0.60297595  0.41828039  0.05241058
   0.75043523  0.91599933  0.26648578
   0.65202345  0.92221943  0.12279829
   0.79912958  0.41968481  0.33590129
   0.70130115  0.42043715  0.19731894
   0.84841902  0.92183475  0.41020943
   0.89767981  0.41931622  0.47959446
   0.94526821  0.92193436  0.04849482
   0.44710757  0.92458386  0.49060485
   0.39819950  0.41751192  0.05310341
   0.24913705  0.91740000  0.26541963
   0.34862676  0.92236189  0.12475390
   0.20036741  0.42032434  0.33524778
   0.29779833  0.42174908  0.19763942
   0.15148506  0.92271674  0.40866150
   0.10215957  0.42057657  0.47845337
   0.05454896  0.92148232  0.04556090
   0.55570386  0.08456900  0.23556008
   0.60285217  0.58039381  0.30246071
   0.75008046  0.08447197  0.01651464
   0.65252205  0.07667520  0.37328182
   0.79900205  0.57967688  0.08600652
   0.70173821  0.58090489  0.44684315
   0.84847241  0.07827876  0.16011038
   0.89762775  0.58098146  0.22960355
   0.94511465  0.07961684  0.29842793
   0.50130415  0.56402544  0.15867608
   0.49776335  0.42698026  0.41267220
   0.99936222  0.56900326  0.37089082
   0.00022880  0.43445301  0.12055351
   0.44461350  0.07869747  0.73663329
   0.39706996  0.57927849  0.80419056
   0.24995805  0.08520518  0.51378022
   0.34759844  0.07786017  0.87427307
   0.20086222  0.58060615  0.58493135
   0.29839224  0.58246493  0.94630155
   0.15152704  0.08022206  0.65784640
   0.10257264  0.58279827  0.72789556
   0.05460272  0.07882050  0.79579380
   0.55455263  0.92286441  0.98676226
   0.60319619  0.41552941  0.55313867
   0.75032087  0.91566802  0.76690561
   0.65213289  0.92052897  0.62346246
   0.79916022  0.41939718  0.83608878
   0.70134668  0.41945133  0.69712063
   0.84844741  0.92213595  0.91047831
   0.89771592  0.41891738  0.97976763
   0.94520317  0.92147088  0.54852912
   0.44511361  0.91771733  0.98327974
   0.39922268  0.42203909  0.55494437
   0.24971576  0.91642800  0.76563510
   0.34802240  0.91911002  0.62669048
   0.20119284  0.41980092  0.83521940
   0.29908040  0.41946037  0.69700091
   0.15162147  0.92330201  0.90848740
   0.10206079  0.41974708  0.97799126
   0.05452883  0.92149427  0.54600149
   0.55487252  0.07817798  0.73598930
   0.60266528  0.58139279  0.80168176
   0.75030948  0.08413231  0.51682728
   0.65170027  0.07602121  0.87256461
   0.79902473  0.57982439  0.58628636
   0.70152341  0.58010840  0.94655396
   0.84842675  0.07774430  0.66032369
   0.89768055  0.58096466  0.72988566
   0.94522358  0.07928079  0.79829704
   0.49967858  0.56029933  0.66203980
   0.49981394  0.42894782  0.91123307
   0.99972385  0.56890157  0.87074801
   0.00006025  0.43586450  0.62070425
Direct configuration=     4
   0.42397511  0.25180626  0.39349846
   0.44579304  0.07777369  0.23277189
   0.39711830  0.57340619  0.29778142
   0.24976596  0.08397191  0.01525374
   0.34893471  0.08055473  0.37162034
   0.20045513  0.57901307  0.08437580
   0.29755999  0.58525352  0.44409302
   0.15090266  0.07938114  0.15818066
   0.10234128  0.58296479  0.22817768
   0.05437499  0.07865307  0.29575528
   0.55589231  0.92287289  0.48646165
   0.60298186  0.41835693  0.05244994
   0.75043579  0.91632705  0.26648926
   0.65202585  0.92241137  0.12282076
   0.79911035  0.42003197  0.33591258
   0.70132351  0.42078720  0.19731206
   0.84841201  0.92206173  0.41017246
   0.89766540  0.41940883  0.47957030
   0.94528181  0.92201257  0.04848700
   0.44712680  0.92494312  0.49060343
   0.39820014  0.41752659  0.05312218
   0.24914625  0.91776037  0.26545070
   0.34865432  0.92264548  0.12482390
   0.20039378  0.42065967  0.33525576
   0.29776395  0.42219689  0.19765539
   0.15149557  0.92295496  0.40860969
   0.10218733  0.42067329  0.47843818
   0.05453623  0.92156057  0.04555277
   0.55566780  0.08454963  0.23562027
   0.60288166  0.58024564  0.30251764
   0.75008258  0.08410810  0.01651763
   0.65251749  0.07651970  0.37332932
   0.79897706  0.57933475  0.08602241
   0.70176523  0.58054318  0.44684571
   0.84847365  0.07807405  0.16006600
   0.89761675  0.58088254  0.22956547
   0.94512025  0.07955324  0.29841159
   0.50131880  0.56355126  0.15864539
   0.49754302  0.42701354  0.41262923
   0.99935868  0.56864214  0.37091794
   0.00023168  0.43478234  0.12057242
   0.44462124  0.07862671  0.73663860
   0.39705357  0.57918522  0.80423892
   0.24994792  0.08491114  0.51375560
   0.34759003  0.07763274  0.87429674
   0.20087107  0.58030988  0.58493855
   0.29835609  0.58215903  0.94627406
   0.15153248  0.08001582  0.65781974
   0.10259303  0.58272206  0.72787086
   0.05458999  0.07879442  0.79579224
   0.55453438  0.92297250  0.98676361
   0.60320562  0.41561232  0.55315487
   0.75031859  0.91598433  0.76688643
   0.65212811  0.92072242  0.62349805
   0.79913887  0.41974411  0.83608672
   0.70137037  0.41980789  0.69710651
   0.84844114  0.92236147  0.91044289
   0.89769970  0.41898436  0.97976209
   0.94521459  0.92155059  0.54851255
   0.44512506  0.91783155  0.98327165
   0.39930553  0.42198466  0.55478504
   0.24971791  0.91675962  0.76563114
   0.34801154  0.91932892  0.62671770
   0.20121476  0.42009166  0.83521718
   0.29907867  0.41978748  0.69698748
   0.15163243  0.92350364  0.90844587
   0.10207296  0.41985217  0.97795925
   0.05451784  0.92153961  0.54597518
   0.55486578  0.07809404  0.73600652
   0.60268471  0.58130991  0.80169079
   0.75031333  0.08381300  0.51682822
   0.65170493  0.07580313  0.87260953
   0.79899991  0.57947673  0.58629689
   0.70154705  0.57979070  0.94654325
   0.84842098  0.07753785  0.66027575
   0.89766935  0.58089808  0.72986295
   0.94522971  0.07923769  0.79828094
   0.49965986  0.56007678  0.66202327
   0.49981099  0.42921718  0.91118398
   0.99972165  0.56852544  0.87081001
   0.00005907  0.43615306  0.62075107
Direct configuration=     5
   0.42392339  0.25165746  0.39368661
   0.44597251  0.07580864  0.23205262
   0.39698172  0.57508223  0.29723226
   0.24981051  0.08260938  0.01547502
   0.34901822  0.07879629  0.37200433
   0.20048840  0.57795863  0.08433285
   0.29768053  0.58356205  0.44420247
   0.15090691  0.07854277  0.15799437
   0.10237222  0.58227410  0.22812799
   0.05436313  0.07837909  0.29565911
   0.55578178  0.92395421  0.48653250
   0.60300229  0.41876931  0.05272068
   0.75041910  0.91781662  0.26652987
   0.65196855  0.92310976  0.12292830
   0.79909082  0.42115495  0.33589965
   0.70136202  0.42190621  0.19730081
   0.84839833  0.92276631  0.41007109
   0.89760906  0.42010021  0.47946557
   0.94529980  0.92259186  0.04833014
   0.44727143  0.92343520  0.49117437
   0.39817132  0.41816479  0.05299646
   0.24931725  0.91950326  0.26560753
   0.34877206  0.92360624  0.12506684
   0.20044024  0.42196581  0.33520533
   0.29768841  0.42353089  0.19782713
   0.15151579  0.92382408  0.40847822
   0.10227472  0.42128620  0.47837253
   0.05451747  0.92214370  0.04541844
   0.55552791  0.08410304  0.23591714
   0.60291465  0.57938154  0.30270584
   0.75008479  0.08259633  0.01652232
   0.65248409  0.07591280  0.37342656
   0.79894242  0.57820848  0.08601111
   0.70181309  0.57933944  0.44689683
   0.84847396  0.07731500  0.15996413
   0.89757898  0.58024932  0.22945701
   0.94511217  0.07904661  0.29825716
   0.50132959  0.56182230  0.15852323
   0.49725317  0.42847299  0.41241462
   0.99935729  0.56744521  0.37114791
   0.00025079  0.43573904  0.12080946
   0.44466144  0.07807985  0.73686798
   0.39700664  0.57840656  0.80413510
   0.24993704  0.08377501  0.51372537
   0.34755884  0.07682187  0.87435682
   0.20089232  0.57931019  0.58489437
   0.29827811  0.58113627  0.94628195
   0.15152768  0.07930926  0.65772657
   0.10266699  0.58216839  0.72782409
   0.05457493  0.07834472  0.79568187
   0.55450853  0.92376797  0.98693802
   0.60317657  0.41586544  0.55325501
   0.75030359  0.91741993  0.76681492
   0.65208414  0.92147400  0.62349068
   0.79910500  0.42087191  0.83602822
   0.70139160  0.42087876  0.69712142
   0.84842501  0.92307644  0.91036093
   0.89763113  0.41960735  0.97972305
   0.94522768  0.92215666  0.54834616
   0.44512323  0.91857181  0.98360955
   0.39921306  0.42402455  0.55533023
   0.24972635  0.91824388  0.76559304
   0.34808833  0.92037504  0.62650480
   0.20125997  0.42107167  0.83514490
   0.29912701  0.42061455  0.69694530
   0.15167607  0.92415536  0.90830848
   0.10213071  0.42061443  0.97785685
   0.05452712  0.92208363  0.54580400
   0.55485990  0.07745330  0.73608215
   0.60277042  0.58072574  0.80175511
   0.75031724  0.08240942  0.51686337
   0.65172341  0.07510079  0.87271921
   0.79896551  0.57836647  0.58624570
   0.70157561  0.57865881  0.94652724
   0.84841153  0.07682013  0.66016796
   0.89762139  0.58038510  0.72980003
   0.94522448  0.07879311  0.79814092
   0.49958274  0.55930669  0.66161294
   0.49978524  0.43003612  0.91081513
   0.99970961  0.56732666  0.87114636
   0.00006281  0.43693970  0.62105784
Direct configuration=     6
   0.42389140  0.25156542  0.39380299
   0.44608352  0.07459314  0.23160771
   0.39689724  0.57611895  0.29689257
   0.24983807  0.08176658  0.01561189
   0.34906987  0.07770859  0.37224185
   0.20050897  0.57730640  0.08430628
   0.29775510  0.58251577  0.44427016
   0.15090954  0.07802419  0.15787914
   0.10239136  0.58184686  0.22809725
   0.05435580  0.07820962  0.29559963
   0.55571341  0.92462307  0.48657633
   0.60301492  0.41902439  0.05288816
   0.75040878  0.91873800  0.26655499
   0.65193311  0.92354175  0.12299482
   0.79907874  0.42184957  0.33589165
   0.70138584  0.42259838  0.19729385
   0.84838986  0.92320214  0.41000838
   0.89757421  0.42052787  0.47940078
   0.94531093  0.92295018  0.04823310
   0.44736089  0.92250246  0.49152753
   0.39815349  0.41855956  0.05291869
   0.24942303  0.92058133  0.26570454
   0.34884488  0.92420052  0.12521710
   0.20046898  0.42277374  0.33517414
   0.29764168  0.42435605  0.19793337
   0.15152829  0.92436169  0.40839690
   0.10232877  0.42166532  0.47833193
   0.05450587  0.92250440  0.04533535
   0.55544139  0.08382680  0.23610077
   0.60293506  0.57884705  0.30282225
   0.75008616  0.08166121  0.01652521
   0.65246343  0.07553739  0.37348671
   0.79892099  0.57751181  0.08600412
   0.70184270  0.57859486  0.44692846
   0.84847416  0.07684548  0.15990113
   0.89755562  0.57985763  0.22938992
   0.94510718  0.07873323  0.29816164
   0.50133627  0.56075283  0.15844766
   0.49707388  0.42937574  0.41228187
   0.99935643  0.56670485  0.37129017
   0.00026262  0.43633082  0.12095608
   0.44468631  0.07774159  0.73700987
   0.39697762  0.57792491  0.80407088
   0.24993031  0.08307226  0.51370667
   0.34753955  0.07632030  0.87439399
   0.20090547  0.57869182  0.58486704
   0.29822987  0.58050363  0.94628683
   0.15152471  0.07887222  0.65766893
   0.10271274  0.58182592  0.72779516
   0.05456561  0.07806656  0.79561359
   0.55449254  0.92426001  0.98704590
   0.60315860  0.41602201  0.55331695
   0.75029432  0.91830794  0.76677069
   0.65205694  0.92193890  0.62348612
   0.79908405  0.42156952  0.83599203
   0.70140474  0.42154115  0.69713065
   0.84841502  0.92351869  0.91031023
   0.89758871  0.41999270  0.97969889
   0.94523578  0.92253155  0.54824324
   0.44512210  0.91902970  0.98381856
   0.39915587  0.42528634  0.55566747
   0.24973156  0.91916199  0.76556947
   0.34813582  0.92102213  0.62637311
   0.20128793  0.42167787  0.83510019
   0.29915692  0.42112614  0.69691920
   0.15170306  0.92455848  0.90822350
   0.10216643  0.42108593  0.97779350
   0.05453286  0.92242014  0.54569811
   0.55485626  0.07705697  0.73612892
   0.60282343  0.58036440  0.80179490
   0.75031966  0.08154123  0.51688511
   0.65173484  0.07466636  0.87278706
   0.79894424  0.57767971  0.58621404
   0.70159327  0.57795868  0.94651734
   0.84840569  0.07637617  0.66010128
   0.89759172  0.58006780  0.72976112
   0.94522124  0.07851811  0.79805432
   0.49953504  0.55883035  0.66135913
   0.49976932  0.43054268  0.91058697
   0.99970216  0.56658515  0.87135442
   0.00006513  0.43742629  0.62124760
Direct configuration=     7
   0.42384278  0.25126138  0.39361126
   0.44613420  0.07430921  0.23197487
   0.39679408  0.57496945  0.29689652
   0.24987950  0.08140349  0.01576970
   0.34903768  0.07756865  0.37210739
   0.20047397  0.57733261  0.08435342
   0.29780118  0.58226151  0.44432516
   0.15094460  0.07781264  0.15787880
   0.10236376  0.58143993  0.22806478
   0.05438187  0.07777499  0.29547317
   0.55576094  0.92542036  0.48677204
   0.60301024  0.41924400  0.05306272
   0.75038479  0.91918497  0.26658562
   0.65184802  0.92365439  0.12304360
   0.79912653  0.42194541  0.33586312
   0.70134214  0.42273891  0.19729123
   0.84839699  0.92329310  0.40999723
   0.89757264  0.42097821  0.47934673
   0.94528501  0.92348717  0.04805144
   0.44736008  0.92290547  0.49165984
   0.39817121  0.41907766  0.05268530
   0.24953399  0.92101726  0.26582166
   0.34882026  0.92503649  0.12512392
   0.20044734  0.42328474  0.33512322
   0.29770720  0.42423174  0.19809812
   0.15151933  0.92457864  0.40836112
   0.10232715  0.42213151  0.47830642
   0.05453336  0.92307790  0.04518926
   0.55550206  0.08315566  0.23626882
   0.60285670  0.57833343  0.30294474
   0.75007404  0.08121700  0.01652013
   0.65243266  0.07535703  0.37343613
   0.79896485  0.57740019  0.08597041
   0.70178592  0.57839496  0.44692261
   0.84846868  0.07664319  0.15991487
   0.89756205  0.57945669  0.22937203
   0.94507864  0.07826415  0.29800933
   0.50139748  0.56042397  0.15808337
   0.49716179  0.42989804  0.41201329
   0.99936562  0.56648590  0.37154318
   0.00028124  0.43631976  0.12123150
   0.44468551  0.07726094  0.73730139
   0.39699346  0.57769533  0.80407522
   0.24995074  0.08260919  0.51376709
   0.34754315  0.07603870  0.87433006
   0.20093224  0.57860756  0.58480327
   0.29826472  0.58036954  0.94631799
   0.15151404  0.07874880  0.65766784
   0.10271635  0.58143410  0.72779932
   0.05459139  0.07751794  0.79547535
   0.55449594  0.92495868  0.98730322
   0.60310186  0.41634609  0.55337724
   0.75028099  0.91871590  0.76676609
   0.65200030  0.92208887  0.62337667
   0.79912107  0.42167912  0.83595958
   0.70133820  0.42156567  0.69715772
   0.84841452  0.92360323  0.91031454
   0.89757373  0.42045616  0.97963933
   0.94522192  0.92309809  0.54809225
   0.44508398  0.91935508  0.98384087
   0.39905184  0.42587730  0.55563638
   0.24976148  0.91955472  0.76555294
   0.34815414  0.92133182  0.62649315
   0.20126155  0.42173435  0.83504059
   0.29919505  0.42133573  0.69689785
   0.15172195  0.92471421  0.90819816
   0.10217962  0.42157769  0.97775552
   0.05457445  0.92300428  0.54557706
   0.55485763  0.07643346  0.73621346
   0.60284062  0.57995042  0.80190311
   0.75030940  0.08111820  0.51691438
   0.65172723  0.07458525  0.87278276
   0.79898754  0.57760568  0.58617155
   0.70153835  0.57780062  0.94651269
   0.84841968  0.07623487  0.66011994
   0.89758707  0.57969142  0.72974101
   0.94519401  0.07807209  0.79793513
   0.49955172  0.55855933  0.66105238
   0.49974067  0.43058726  0.91031498
   0.99969071  0.56641253  0.87159093
   0.00007849  0.43737789  0.62151293
Direct configuration=     8
   0.42379869  0.25098567  0.39343738
   0.44618016  0.07405173  0.23230783
   0.39670053  0.57392704  0.29690011
   0.24991707  0.08107423  0.01591280
   0.34900848  0.07744174  0.37198546
   0.20044223  0.57735638  0.08439616
   0.29784297  0.58203094  0.44437503
   0.15097639  0.07762079  0.15787848
   0.10233873  0.58107092  0.22803534
   0.05440551  0.07738085  0.29535850
   0.55580405  0.92614338  0.48694951
   0.60300600  0.41944315  0.05322101
   0.75036303  0.91959030  0.26661339
   0.65177086  0.92375654  0.12308784
   0.79916986  0.42203231  0.33583725
   0.70130251  0.42286635  0.19728885
   0.84840345  0.92337558  0.40998711
   0.89757121  0.42138659  0.47929772
   0.94526151  0.92397413  0.04788671
   0.44735934  0.92327094  0.49177982
   0.39818727  0.41954750  0.05247366
   0.24963461  0.92141257  0.26592788
   0.34879793  0.92579458  0.12503941
   0.20042772  0.42374813  0.33507704
   0.29776661  0.42411902  0.19824753
   0.15151121  0.92477538  0.40832867
   0.10232567  0.42255428  0.47828329
   0.05455828  0.92359798  0.04505679
   0.55555707  0.08254705  0.23642121
   0.60278563  0.57786766  0.30305581
   0.75006305  0.08081418  0.01651553
   0.65240476  0.07519348  0.37339027
   0.79900463  0.57729896  0.08593985
   0.70173444  0.57821368  0.44691731
   0.84846371  0.07645975  0.15992733
   0.89756788  0.57909309  0.22935581
   0.94505276  0.07783877  0.29787121
   0.50145300  0.56012574  0.15775302
   0.49724152  0.43037168  0.41176972
   0.99937395  0.56628736  0.37177262
   0.00029813  0.43630973  0.12148127
   0.44468478  0.07682507  0.73756575
   0.39700782  0.57748714  0.80407916
   0.24996926  0.08218927  0.51382187
   0.34754642  0.07578333  0.87427208
   0.20095651  0.57853115  0.58474545
   0.29829633  0.58024795  0.94634625
   0.15150437  0.07863688  0.65766686
   0.10271962  0.58107880  0.72780309
   0.05461477  0.07702043  0.79534998
   0.55449902  0.92559225  0.98753656
   0.60305041  0.41663997  0.55343192
   0.75026891  0.91908586  0.76676193
   0.65194894  0.92222488  0.62327742
   0.79915465  0.42177851  0.83593016
   0.70127785  0.42158790  0.69718227
   0.84841406  0.92367990  0.91031845
   0.89756015  0.42087644  0.97958532
   0.94520936  0.92361186  0.54795533
   0.44504941  0.91965014  0.98386111
   0.39895750  0.42641321  0.55560818
   0.24978861  0.91991086  0.76553794
   0.34817075  0.92161266  0.62660200
   0.20123763  0.42178557  0.83498655
   0.29922962  0.42152579  0.69687849
   0.15173908  0.92485544  0.90817518
   0.10219159  0.42202363  0.97772107
   0.05461215  0.92353399  0.54546729
   0.55485888  0.07586804  0.73629012
   0.60285621  0.57957500  0.80200124
   0.75030010  0.08073458  0.51694092
   0.65172033  0.07451169  0.87277886
   0.79902680  0.57753855  0.58613302
   0.70148856  0.57765728  0.94650846
   0.84843237  0.07610674  0.66013687
   0.89758285  0.57935012  0.72972278
   0.94516932  0.07766762  0.79782706
   0.49956685  0.55831355  0.66077420
   0.49971469  0.43062768  0.91006834
   0.99968033  0.56625598  0.87180541
   0.00009061  0.43733401  0.62175353
Direct configuration=     9
   0.42378463  0.25089778  0.39338196
   0.44619482  0.07396965  0.23241397
   0.39667070  0.57359473  0.29690125
   0.24992905  0.08096926  0.01595843
   0.34899918  0.07740128  0.37194659
   0.20043211  0.57736396  0.08440979
   0.29785629  0.58195744  0.44439093
   0.15098652  0.07755963  0.15787838
   0.10233075  0.58095328  0.22802595
   0.05441305  0.07725521  0.29532194
   0.55581779  0.92637387  0.48700609
   0.60300464  0.41950663  0.05327148
   0.75035609  0.91971952  0.26662225
   0.65174626  0.92378910  0.12310194
   0.79918367  0.42206002  0.33582901
   0.70128987  0.42290698  0.19728810
   0.84840551  0.92340188  0.40998389
   0.89757076  0.42151678  0.47928209
   0.94525401  0.92412937  0.04783419
   0.44735910  0.92338745  0.49181807
   0.39819239  0.41969728  0.05240619
   0.24966669  0.92153859  0.26596174
   0.34879082  0.92603625  0.12501247
   0.20042146  0.42389586  0.33506232
   0.29778555  0.42408309  0.19829516
   0.15150862  0.92483810  0.40831833
   0.10232520  0.42268906  0.47827592
   0.05456623  0.92376377  0.04501455
   0.55557461  0.08235303  0.23646979
   0.60276298  0.57771918  0.30309122
   0.75005955  0.08068577  0.01651406
   0.65239586  0.07514134  0.37337565
   0.79901731  0.57726669  0.08593010
   0.70171803  0.57815589  0.44691562
   0.84846213  0.07640126  0.15993131
   0.89756974  0.57897718  0.22935064
   0.94504451  0.07770316  0.29782718
   0.50147069  0.56003067  0.15764770
   0.49726693  0.43052268  0.41169208
   0.99937661  0.56622406  0.37184576
   0.00030352  0.43630654  0.12156089
   0.44468455  0.07668612  0.73765003
   0.39701240  0.57742078  0.80408042
   0.24997517  0.08205540  0.51383934
   0.34754747  0.07570192  0.87425360
   0.20096425  0.57850679  0.58472702
   0.29830640  0.58020919  0.94635526
   0.15150128  0.07860120  0.65766654
   0.10272067  0.58096553  0.72780429
   0.05462223  0.07686183  0.79531001
   0.55450000  0.92579423  0.98761095
   0.60303401  0.41673366  0.55344935
   0.75026506  0.91920380  0.76676060
   0.65193257  0.92226823  0.62324577
   0.79916535  0.42181019  0.83592078
   0.70125861  0.42159498  0.69719010
   0.84841391  0.92370435  0.91031970
   0.89755582  0.42101042  0.97956810
   0.94520535  0.92377564  0.54791168
   0.44503839  0.91974421  0.98386756
   0.39892742  0.42658405  0.55559920
   0.24979726  0.92002440  0.76553316
   0.34817604  0.92170219  0.62663670
   0.20123000  0.42180190  0.83496932
   0.29924065  0.42158638  0.69687231
   0.15174454  0.92490046  0.90816786
   0.10219540  0.42216579  0.97771009
   0.05462417  0.92370286  0.54543230
   0.55485928  0.07568779  0.73631455
   0.60286117  0.57945532  0.80203253
   0.75029714  0.08061229  0.51694938
   0.65171813  0.07448824  0.87277761
   0.79903932  0.57751715  0.58612074
   0.70147268  0.57761158  0.94650712
   0.84843642  0.07606589  0.66014226
   0.89758151  0.57924131  0.72971696
   0.94516145  0.07753868  0.79779260
   0.49957167  0.55823520  0.66068552
   0.49970641  0.43064057  0.90998971
   0.99967702  0.56620608  0.87187378
   0.00009447  0.43732002  0.62183024
Direct configuration=    10
   0.42384788  0.25094395  0.39382696
   0.44625944  0.07294720  0.23235860
   0.39661255  0.57353571  0.29666843
   0.24991849  0.08107874  0.01595516
   0.34891859  0.07694620  0.37208375
   0.20044818  0.57757068  0.08451067
   0.29786246  0.58198110  0.44437673
   0.15104676  0.07751380  0.15790178
   0.10228952  0.58073653  0.22798011
   0.05442035  0.07677672  0.29522750
   0.55581686  0.92693587  0.48713504
   0.60299536  0.41948619  0.05346802
   0.75033435  0.91961708  0.26662680
   0.65169836  0.92366275  0.12316700
   0.79921130  0.42205489  0.33587567
   0.70122604  0.42300960  0.19724893
   0.84841127  0.92348244  0.40993070
   0.89759598  0.42164749  0.47919794
   0.94525680  0.92471741  0.04769683
   0.44730139  0.92445392  0.49189438
   0.39827344  0.41998181  0.05218399
   0.24974756  0.92146931  0.26606966
   0.34882294  0.92651091  0.12500480
   0.20040569  0.42406677  0.33512694
   0.29776618  0.42409778  0.19822109
   0.15150473  0.92506224  0.40824144
   0.10232303  0.42302178  0.47821725
   0.05458568  0.92441345  0.04490268
   0.55561463  0.08168489  0.23664698
   0.60269351  0.57750026  0.30327131
   0.75003620  0.08065766  0.01652231
   0.65236805  0.07500096  0.37333916
   0.79903392  0.57726947  0.08599314
   0.70165301  0.57802278  0.44681320
   0.84845085  0.07626581  0.15988212
   0.89760413  0.57881033  0.22928946
   0.94503989  0.07723961  0.29770662
   0.50153708  0.55966824  0.15726655
   0.49721116  0.43089708  0.41138305
   0.99938083  0.56584558  0.37215264
   0.00032020  0.43641600  0.12184072
   0.44467998  0.07622094  0.73776080
   0.39705123  0.57740689  0.80405001
   0.24999575  0.08215606  0.51385335
   0.34757895  0.07565245  0.87431487
   0.20097435  0.57855530  0.58475509
   0.29835557  0.58019022  0.94642634
   0.15152909  0.07840604  0.65762868