 running on   20 total cores
 distrk:  each k-point on   20 cores,    1 groups
 distr:  one band on    1 cores,   20 groups
 using from now: INCAR     
 vasp.6.1.1 19Jun20 (build Jan 13 2022 18:23:11) complex                        
  
 POSCAR found type information on POSCAR O Ti
 POSCAR found :  2 types and      81 ions
 scaLAPACK will be used
 -----------------------------------------------------------------------------
|                                                                             |
|           W    W    AA    RRRRR   N    N  II  N    N   GGGG   !!!           |
|           W    W   A  A   R    R  NN   N  II  NN   N  G    G  !!!           |
|           W    W  A    A  R    R  N N  N  II  N N  N  G       !!!           |
|           W WW W  AAAAAA  RRRRR   N  N N  II  N  N N  G  GGG   !            |
|           WW  WW  A    A  R   R   N   NN  II  N   NN  G    G                |
|           W    W  A    A  R    R  N    N  II  N    N   GGGG   !!!           |
|                                                                             |
|     For optimal performance we recommend to set                             |
|       NCORE = 4 - approx SQRT(number of cores).                             |
|     NCORE specifies how many cores store one orbital (NPAR=cpu/NCORE).      |
|     This setting can greatly improve the performance of VASP for DFT.       |
|     The default, NCORE=1 might be grossly inefficient on modern             |
|     multi-core architectures or massively parallel machines. Do your        |
|     own testing!!!!                                                         |
|     Unfortunately you need to use the default for GW and RPA                |
|     calculations (for HF NCORE is supported but not extensively tested      |
|     yet).                                                                   |
|                                                                             |
 -----------------------------------------------------------------------------

 -----------------------------------------------------------------------------
|                                                                             |
|               ----> ADVICE to this user running VASP <----                  |
|                                                                             |
|     You have a (more or less) 'large supercell' and for larger cells it     |
|     might be more efficient to use real-space projection operators.         |
|     Therefore, try LREAL= Auto in the INCAR file.                           |
|     Mind: For very accurate calculation, you might also keep the            |
|     reciprocal projection scheme (i.e. LREAL=.FALSE.).                      |
|                                                                             |
 -----------------------------------------------------------------------------

 LDA part: xc-table for Pade appr. of Perdew
 POSCAR, INCAR and KPOINTS ok, starting setup
 FFT: planning ...
 WAVECAR not read
 WARNING: random wavefunctions but no delay for mixing, default for NELMDL
 entering main loop
       N       E                     dE             d eps       ncg     rms          rms(c)
DAV:   1     0.136354580418E+05    0.13635E+05   -0.40871E+05  9320   0.179E+03
DAV:   2     0.143992672820E+04   -0.12196E+05   -0.11959E+05  9280   0.611E+02
DAV:   3    -0.325615546121E+03   -0.17655E+04   -0.16764E+04 13760   0.204E+02
DAV:   4    -0.685320120093E+03   -0.35970E+03   -0.35282E+03 13580   0.716E+01
DAV:   5    -0.720261500699E+03   -0.34941E+02   -0.34651E+02 14700   0.206E+01    0.745E+01
DAV:   6    -0.637586391005E+03    0.82675E+02   -0.36545E+02 12100   0.440E+01    0.245E+01
DAV:   7    -0.201772901477E+04   -0.13801E+04   -0.74956E+03 14060   0.127E+02    0.184E+02
DAV:   8    -0.520052926874E+03    0.14977E+04   -0.21178E+03 13280   0.478E+01    0.613E+01
DAV:   9    -0.615685214484E+03   -0.95632E+02   -0.12799E+03 13460   0.320E+01    0.342E+01
DAV:  10    -0.630871180423E+03   -0.15186E+02   -0.39996E+02 13580   0.214E+01    0.166E+01
DAV:  11    -0.652653964628E+03   -0.21783E+02   -0.80681E+01 14540   0.223E+01    0.347E+01
DAV:  12    -0.639744659999E+03    0.12909E+02   -0.60437E+01 14260   0.167E+01    0.215E+01
DAV:  13    -0.636625630412E+03    0.31190E+01   -0.25599E+01 13400   0.110E+01    0.167E+01
DAV:  14    -0.634951953657E+03    0.16737E+01   -0.13998E+01 13340   0.949E+00    0.123E+01
DAV:  15    -0.634248505405E+03    0.70345E+00   -0.15044E+01 13520   0.932E+00    0.878E+00
DAV:  16    -0.633396387557E+03    0.85212E+00   -0.48787E+00 12820   0.592E+00    0.612E+00
DAV:  17    -0.633155908114E+03    0.24048E+00   -0.23212E+00 12260   0.506E+00    0.435E+00
DAV:  18    -0.633227801748E+03   -0.71894E-01   -0.18725E+00 13060   0.515E+00    0.397E+00
DAV:  19    -0.633067469125E+03    0.16033E+00   -0.12690E+00 13140   0.435E+00    0.261E+00
DAV:  20    -0.633002639593E+03    0.64830E-01   -0.49361E-01 13340   0.246E+00    0.197E+00
DAV:  21    -0.632957199128E+03    0.45440E-01   -0.17355E-01 13700   0.140E+00    0.133E+00
DAV:  22    -0.632953269892E+03    0.39292E-02   -0.95010E-02 12680   0.111E+00    0.120E+00
DAV:  23    -0.632940150780E+03    0.13119E-01   -0.70233E-02 12620   0.101E+00    0.665E-01
DAV:  24    -0.632938799817E+03    0.13510E-02   -0.45412E-02 12360   0.752E-01    0.536E-01
DAV:  25    -0.632933819509E+03    0.49803E-02   -0.19296E-02 13780   0.464E-01    0.208E-01
DAV:  26    -0.632933573909E+03    0.24560E-03   -0.45674E-03 14100   0.196E-01    0.133E-01
DAV:  27    -0.632933377029E+03    0.19688E-03   -0.13229E-03 12720   0.108E-01    0.892E-02
DAV:  28    -0.632933386499E+03   -0.94694E-05   -0.67121E-04 12560   0.932E-02    0.813E-02
DAV:  29    -0.632933441668E+03   -0.55169E-04   -0.49135E-04 13020   0.779E-02    0.646E-02
DAV:  30    -0.632933426087E+03    0.15580E-04   -0.32132E-04 12500   0.687E-02    0.565E-02
DAV:  31    -0.632933374165E+03    0.51923E-04   -0.13862E-04 10540   0.457E-02    0.319E-02
DAV:  32    -0.632933369505E+03    0.46600E-05   -0.36543E-05  8220   0.199E-02
   1 F= -.63293337E+03 E0= -.63288187E+03  d E =-.103002E+00
 writing wavefunctions
