 running on   20 total cores
 distrk:  each k-point on   20 cores,    1 groups
 distr:  one band on    1 cores,   20 groups
 using from now: INCAR     
 vasp.6.1.1 19Jun20 (build Jan 13 2022 18:23:11) complex                        
  
 POSCAR found type information on POSCAR O Ti
 POSCAR found :  2 types and      81 ions
 scaLAPACK will be used
 -----------------------------------------------------------------------------
|                                                                             |
|           W    W    AA    RRRRR   N    N  II  N    N   GGGG   !!!           |
|           W    W   A  A   R    R  NN   N  II  NN   N  G    G  !!!           |
|           W    W  A    A  R    R  N N  N  II  N N  N  G       !!!           |
|           W WW W  AAAAAA  RRRRR   N  N N  II  N  N N  G  GGG   !            |
|           WW  WW  A    A  R   R   N   NN  II  N   NN  G    G                |
|           W    W  A    A  R    R  N    N  II  N    N   GGGG   !!!           |
|                                                                             |
|     For optimal performance we recommend to set                             |
|       NCORE = 4 - approx SQRT(number of cores).                             |
|     NCORE specifies how many cores store one orbital (NPAR=cpu/NCORE).      |
|     This setting can greatly improve the performance of VASP for DFT.       |
|     The default, NCORE=1 might be grossly inefficient on modern             |
|     multi-core architectures or massively parallel machines. Do your        |
|     own testing!!!!                                                         |
|     Unfortunately you need to use the default for GW and RPA                |
|     calculations (for HF NCORE is supported but not extensively tested      |
|     yet).                                                                   |
|                                                                             |
 -----------------------------------------------------------------------------

 -----------------------------------------------------------------------------
|                                                                             |
|               ----> ADVICE to this user running VASP <----                  |
|                                                                             |
|     You have a (more or less) 'large supercell' and for larger cells it     |
|     might be more efficient to use real-space projection operators.         |
|     Therefore, try LREAL= Auto in the INCAR file.                           |
|     Mind: For very accurate calculation, you might also keep the            |
|     reciprocal projection scheme (i.e. LREAL=.FALSE.).                      |
|                                                                             |
 -----------------------------------------------------------------------------

 LDA part: xc-table for Pade appr. of Perdew
 POSCAR, INCAR and KPOINTS ok, starting setup
 FFT: planning ...
 WAVECAR not read
 WARNING: random wavefunctions but no delay for mixing, default for NELMDL
 entering main loop
       N       E                     dE             d eps       ncg     rms          rms(c)
DAV:   1     0.136157527476E+05    0.13616E+05   -0.40866E+05  7060   0.179E+03
DAV:   2     0.144328651514E+04   -0.12172E+05   -0.11937E+05  6960   0.610E+02
DAV:   3    -0.320545525859E+03   -0.17638E+04   -0.16737E+04 10340   0.205E+02
DAV:   4    -0.683377609700E+03   -0.36283E+03   -0.35564E+03 10240   0.719E+01
DAV:   5    -0.718373928667E+03   -0.34996E+02   -0.34708E+02 11000   0.207E+01    0.756E+01
DAV:   6    -0.639335680231E+03    0.79038E+02   -0.37175E+02  9460   0.443E+01    0.292E+01
DAV:   7    -0.791497926902E+03   -0.15216E+03   -0.61406E+02 10080   0.543E+01    0.717E+01
DAV:   8    -0.830353673310E+03   -0.38856E+02   -0.55168E+02 10460   0.388E+01    0.930E+01
DAV:   9    -0.638090065144E+03    0.19226E+03   -0.34477E+02 10440   0.253E+01    0.301E+01
DAV:  10    -0.633549293805E+03    0.45408E+01   -0.17905E+02 10240   0.156E+01    0.167E+01
DAV:  11    -0.634520961949E+03   -0.97167E+00   -0.25195E+01 10440   0.111E+01    0.160E+01
DAV:  12    -0.632940871840E+03    0.15801E+01   -0.94890E+00 10060   0.696E+00    0.138E+01
DAV:  13    -0.632587686928E+03    0.35318E+00   -0.21298E+00  9440   0.420E+00    0.120E+01
DAV:  14    -0.634650431451E+03   -0.20627E+01   -0.13335E+01  9440   0.124E+01    0.135E+01
DAV:  15    -0.633297777415E+03    0.13527E+01   -0.18119E+01  9740   0.113E+01    0.718E+00
DAV:  16    -0.632678659317E+03    0.61912E+00   -0.69482E+00  9620   0.738E+00    0.400E+00
DAV:  17    -0.632506259440E+03    0.17240E+00   -0.13580E+00 10220   0.367E+00    0.223E+00
DAV:  18    -0.632478715819E+03    0.27544E-01   -0.43607E-01  9940   0.226E+00    0.144E+00
DAV:  19    -0.632489135399E+03   -0.10420E-01   -0.19177E-01  9340   0.165E+00    0.135E+00
DAV:  20    -0.632469496854E+03    0.19639E-01   -0.13966E-01  9300   0.145E+00    0.666E-01
DAV:  21    -0.632469788632E+03   -0.29178E-03   -0.75157E-02  9460   0.876E-01    0.525E-01
DAV:  22    -0.632466767033E+03    0.30216E-02   -0.28960E-02  9800   0.597E-01    0.253E-01
DAV:  23    -0.632467093809E+03   -0.32678E-03   -0.10165E-02 10220   0.328E-01    0.224E-01
DAV:  24    -0.632466957317E+03    0.13649E-03   -0.45925E-03  9640   0.231E-01    0.178E-01
DAV:  25    -0.632466892095E+03    0.65222E-04   -0.17962E-03  9540   0.151E-01    0.146E-01
DAV:  26    -0.632466638196E+03    0.25390E-03   -0.13682E-03  9220   0.121E-01    0.558E-02
DAV:  27    -0.632466647150E+03   -0.89539E-05   -0.41983E-04  9440   0.681E-02    0.486E-02
DAV:  28    -0.632466621987E+03    0.25163E-04   -0.19411E-04  9040   0.523E-02    0.226E-02
DAV:  29    -0.632466624725E+03   -0.27382E-05   -0.63530E-05  6940   0.280E-02
   1 F= -.63246662E+03 E0= -.63240786E+03  d E =-.117522E+00
 writing wavefunctions
