 running on   20 total cores
 distrk:  each k-point on   20 cores,    1 groups
 distr:  one band on    1 cores,   20 groups
 using from now: INCAR     
 vasp.6.1.1 19Jun20 (build Jan 13 2022 18:23:11) complex                        
  
 POSCAR found type information on POSCAR O Ti
 POSCAR found :  2 types and      81 ions
 scaLAPACK will be used
 -----------------------------------------------------------------------------
|                                                                             |
|           W    W    AA    RRRRR   N    N  II  N    N   GGGG   !!!           |
|           W    W   A  A   R    R  NN   N  II  NN   N  G    G  !!!           |
|           W    W  A    A  R    R  N N  N  II  N N  N  G       !!!           |
|           W WW W  AAAAAA  RRRRR   N  N N  II  N  N N  G  GGG   !            |
|           WW  WW  A    A  R   R   N   NN  II  N   NN  G    G                |
|           W    W  A    A  R    R  N    N  II  N    N   GGGG   !!!           |
|                                                                             |
|     For optimal performance we recommend to set                             |
|       NCORE = 4 - approx SQRT(number of cores).                             |
|     NCORE specifies how many cores store one orbital (NPAR=cpu/NCORE).      |
|     This setting can greatly improve the performance of VASP for DFT.       |
|     The default, NCORE=1 might be grossly inefficient on modern             |
|     multi-core architectures or massively parallel machines. Do your        |
|     own testing!!!!                                                         |
|     Unfortunately you need to use the default for GW and RPA                |
|     calculations (for HF NCORE is supported but not extensively tested      |
|     yet).                                                                   |
|                                                                             |
 -----------------------------------------------------------------------------

 -----------------------------------------------------------------------------
|                                                                             |
|               ----> ADVICE to this user running VASP <----                  |
|                                                                             |
|     You have a (more or less) 'large supercell' and for larger cells it     |
|     might be more efficient to use real-space projection operators.         |
|     Therefore, try LREAL= Auto in the INCAR file.                           |
|     Mind: For very accurate calculation, you might also keep the            |
|     reciprocal projection scheme (i.e. LREAL=.FALSE.).                      |
|                                                                             |
 -----------------------------------------------------------------------------

 LDA part: xc-table for Pade appr. of Perdew
 POSCAR, INCAR and KPOINTS ok, starting setup
 FFT: planning ...
 WAVECAR not read
 WARNING: random wavefunctions but no delay for mixing, default for NELMDL
 entering main loop
       N       E                     dE             d eps       ncg     rms          rms(c)
DAV:   1     0.136881229875E+05    0.13688E+05   -0.40743E+05  7040   0.180E+03
DAV:   2     0.146091292632E+04   -0.12227E+05   -0.11989E+05  6960   0.612E+02
DAV:   3    -0.316565500094E+03   -0.17775E+04   -0.16869E+04 10320   0.206E+02
DAV:   4    -0.680233333000E+03   -0.36367E+03   -0.35637E+03 10240   0.722E+01
DAV:   5    -0.715512132848E+03   -0.35279E+02   -0.34978E+02 10980   0.208E+01    0.766E+01
DAV:   6    -0.634464421365E+03    0.81048E+02   -0.34353E+02  9120   0.422E+01    0.238E+01
DAV:   7    -0.750776397712E+03   -0.11631E+03   -0.32155E+02 10080   0.491E+01    0.708E+01
DAV:   8    -0.733095336561E+03    0.17681E+02   -0.29952E+02 10460   0.334E+01    0.689E+01
DAV:   9    -0.630819791205E+03    0.10228E+03   -0.20761E+02 10340   0.208E+01    0.194E+01
DAV:  10    -0.632099250208E+03   -0.12795E+01   -0.81593E+01 10140   0.140E+01    0.145E+01
DAV:  11    -0.638435533868E+03   -0.63363E+01   -0.24083E+01 10740   0.175E+01    0.204E+01
DAV:  12    -0.632666635534E+03    0.57689E+01   -0.28007E+01 10480   0.116E+01    0.109E+01
DAV:  13    -0.633593573946E+03   -0.92694E+00   -0.14813E+01  9720   0.123E+01    0.107E+01
DAV:  14    -0.632929028728E+03    0.66455E+00   -0.12377E+01  9700   0.105E+01    0.767E+00
DAV:  15    -0.631988299678E+03    0.94073E+00   -0.51661E+00  9480   0.639E+00    0.214E+00
DAV:  16    -0.632055058703E+03   -0.66759E-01   -0.14814E+00  9580   0.371E+00    0.233E+00
DAV:  17    -0.631986065503E+03    0.68993E-01   -0.48960E-01  9460   0.253E+00    0.104E+00
DAV:  18    -0.631985389593E+03    0.67591E-03   -0.15608E-01  9740   0.131E+00    0.754E-01
DAV:  19    -0.631984292622E+03    0.10970E-02   -0.59552E-02  9500   0.843E-01    0.539E-01
DAV:  20    -0.631983008389E+03    0.12842E-02   -0.32717E-02  9200   0.692E-01    0.399E-01
DAV:  21    -0.631983251047E+03   -0.24266E-03   -0.18913E-02  9480   0.525E-01    0.376E-01
DAV:  22    -0.631981028597E+03    0.22224E-02   -0.10599E-02  9200   0.401E-01    0.134E-01
DAV:  23    -0.631981157531E+03   -0.12893E-03   -0.34582E-03 11880   0.190E-01    0.121E-01
DAV:  24    -0.631980970532E+03    0.18700E-03   -0.14658E-03  9320   0.146E-01    0.503E-02
DAV:  25    -0.631980995114E+03   -0.24583E-04   -0.42841E-04  9580   0.729E-02    0.495E-02
DAV:  26    -0.631980979624E+03    0.15490E-04   -0.21173E-04  9260   0.585E-02    0.287E-02
DAV:  27    -0.631980980905E+03   -0.12812E-05   -0.11025E-04  7560   0.387E-02    0.220E-02
DAV:  28    -0.631980978062E+03    0.28434E-05   -0.42670E-05  6440   0.247E-02
   1 F= -.63198098E+03 E0= -.63192436E+03  d E =-.113246E+00
 writing wavefunctions
