unknown system                          
           1
     5.110600    0.000000    0.000000
     0.000000    9.811800    0.000000
     0.000000    0.000000   28.963805
   O    Ti
     1    80
Direct configuration=     1
   0.50009883  0.26113113  0.49997168
   0.24936467  0.38667062  0.02174645
   0.69970637  0.44405622  0.07609676
   0.71193446  0.99296837  0.12574535
   0.20620008  0.03667659  0.17403739
   0.69842225  0.08313886  0.22494810
   0.19887294  0.12928960  0.27475348
   0.69743238  0.17365354  0.32541485
   0.18303637  0.21821117  0.37383020
   0.68662502  0.26807076  0.42818327
   0.17982184  0.30888615  0.46755051
   0.53486392  0.16248490  0.04981910
   0.04103350  0.22384534  0.09869278
   0.53567100  0.26358443  0.14934041
   0.03566259  0.30819793  0.19883292
   0.53419362  0.35643182  0.24953990
   0.03110078  0.40077718  0.29848026
   0.52689205  0.44538353  0.35030366
   0.53078099  0.99472106  0.40080552
   0.01363550  0.03404915  0.44838350
   0.74923896  0.88703126  0.02190481
   0.19987294  0.94437498  0.07607610
   0.21216710  0.49291011  0.12531633
   0.70586873  0.53658756  0.17395279
   0.19956678  0.58263394  0.22422102
   0.70263402  0.62874819  0.27501905
   0.20433416  0.67344760  0.32312142
   0.69873511  0.72085659  0.37366789
   0.20502699  0.76456674  0.42394049
   0.74380337  0.80716927  0.47636560
   0.03492385  0.66256261  0.04973459
   0.54113948  0.72385230  0.09883213
   0.03645971  0.76378486  0.14916952
   0.53647171  0.80818366  0.19925250
   0.03500898  0.85625838  0.24880382
   0.53285392  0.90149536  0.29928442
   0.03492753  0.94444816  0.34883758
   0.01911797  0.49540250  0.39700110
   0.51907959  0.55294572  0.44833053
   0.75072381  0.38671189  0.97824722
   0.30030780  0.44410083  0.92390404
   0.28812061  0.99297541  0.87425003
   0.79387373  0.03672271  0.82596282
   0.30168781  0.08321443  0.77505059
   0.80122514  0.12939375  0.72525001
   0.30271401  0.17380976  0.67459432
   0.81715097  0.21838989  0.62617206
   0.31350606  0.26829718  0.57180684
   0.82019369  0.30902069  0.53243813
   0.46509104  0.16257356  0.95015800
   0.95905719  0.22388709  0.90130200
   0.46436270  0.26361642  0.85065763
   0.96441210  0.30823599  0.80116007
   0.46592868  0.35649517  0.75045918
   0.96902556  0.40085598  0.70151791
   0.47325586  0.44548512  0.64968581
   0.46929902  0.99488646  0.59921532
   0.98658012  0.03426170  0.55161978
   0.25085732  0.88705783  0.97808766
   0.80014394  0.94442748  0.92392299
   0.78790284  0.49290960  0.87467788
   0.29422005  0.53662877  0.82604475
   0.80056040  0.58269990  0.77578204
   0.29751084  0.62885611  0.72498807
   0.79586841  0.67357190  0.67689199
   0.30141279  0.72098631  0.62632731
   0.79493651  0.76484037  0.57608982
   0.25598723  0.80733509  0.52364491
   0.96499169  0.66266305  0.95024467
   0.45897379  0.72389029  0.90116242
   0.96359535  0.76381636  0.85083288
   0.46362808  0.80823328  0.80074599
   0.96511010  0.85632014  0.75120552
   0.46728237  0.90155985  0.70071055
   0.96524976  0.94454834  0.65117346
   0.98097023  0.49554576  0.60298370
   0.48125991  0.55317959  0.55162209
   0.00006437  0.12947222  0.00000530
   0.50007081  0.62974111  0.00001374
   0.49999633  0.06033723  0.50001414
   0.00005795  0.56630125  0.50000658
Direct configuration=     2
   0.50009939  0.26084400  0.49997161
   0.24909086  0.38681649  0.02172622
   0.69896412  0.44402605  0.07609352
   0.71126645  0.99292505  0.12581297
   0.20551619  0.03666626  0.17402060
   0.69785430  0.08316948  0.22493857
   0.19810177  0.12924592  0.27477650
   0.69687255  0.17365333  0.32538959
   0.18241010  0.21836418  0.37384197
   0.68633227  0.26802882  0.42820840
   0.18103572  0.30871293  0.46775009
   0.53513927  0.16248474  0.04979686
   0.04152613  0.22376460  0.09872678
   0.53644830  0.26362215  0.14938873
   0.03628158  0.30822167  0.19884977
   0.53475719  0.35640122  0.24954038
   0.03175714  0.40077378  0.29846380
   0.52754312  0.44537570  0.35026415
   0.53123281  0.99483724  0.40081116
   0.01407725  0.03400159  0.44838443
   0.74892822  0.88715171  0.02189303
   0.19923119  0.94435876  0.07607452
   0.21156628  0.49290004  0.12540043
   0.70517067  0.53660910  0.17395286
   0.19891318  0.58266749  0.22422203
   0.70197480  0.62872714  0.27503268
   0.20358118  0.67343010  0.32307063
   0.69806343  0.72088715  0.37361542
   0.20415236  0.76465444  0.42394828
   0.74346086  0.80692435  0.47640337
   0.03521804  0.66260662  0.04972403
   0.54167014  0.72370358  0.09885581
   0.03723175  0.76381674  0.14922073
   0.53705259  0.80816433  0.19924937
   0.03565331  0.85626220  0.24880244
   0.53347552  0.90147528  0.29927607
   0.03552012  0.94451487  0.34878909
   0.01962804  0.49532633  0.39700753
   0.51980952  0.55279398  0.44825753
   0.75100007  0.38685815  0.97826735
   0.30105200  0.44407793  0.92390792
   0.28878999  0.99293423  0.87418269
   0.79455824  0.03671250  0.82597956
   0.30225638  0.08324314  0.77505927
   0.80199641  0.12934490  0.72522598
   0.30327235  0.17380181  0.67461886
   0.81777730  0.21853663  0.62615990
   0.31379909  0.26824780  0.57178251
   0.81897630  0.30884649  0.53223808
   0.46481833  0.16257355  0.95018071
   0.95856564  0.22380630  0.90126788
   0.46358782  0.26365565  0.85060970
   0.96379672  0.30826282  0.80114306
   0.46536275  0.35646900  0.75045860
   0.96836735  0.40085856  0.70153442
   0.47260504  0.44548415  0.64972664
   0.46884326  0.99500786  0.59920912
   0.98614761  0.03421267  0.55161983
   0.25117152  0.88717926  0.97809936
   0.80078754  0.94441585  0.92392511
   0.78850367  0.49290280  0.87459420
   0.29491729  0.53665055  0.82604486
   0.80121119  0.58273328  0.77578011
   0.29816677  0.62882977  0.72497330
   0.79661430  0.67354865  0.67694196
   0.30207925  0.72101287  0.62638007
   0.79581437  0.76491888  0.57608038
   0.25633178  0.80709346  0.52360753
   0.96470224  0.66270501  0.95025498
   0.45844097  0.72373986  0.90113898
   0.96282469  0.76384860  0.85078188
   0.46304705  0.80821537  0.80074875
   0.96446381  0.85632742  0.75120630
   0.46665789  0.90154588  0.70071971
   0.96465466  0.94462185  0.65122310
   0.98044871  0.49547929  0.60297683
   0.48055136  0.55302728  0.55169475
   0.00006368  0.12967743  0.00000558
   0.50006808  0.62989147  0.00001303
   0.49999727  0.06088213  0.50001474
   0.00004848  0.56625351  0.50000848
Direct configuration=     3
   0.50010044  0.26029963  0.49997147
   0.24857174  0.38709305  0.02168784
   0.69755691  0.44396885  0.07608737
   0.70999999  0.99284293  0.12594117
   0.20421964  0.03664669  0.17398877
   0.69677755  0.08322754  0.22492051
   0.19663972  0.12916312  0.27482014
   0.69581118  0.17365292  0.32534171
   0.18122279  0.21865426  0.37386429
   0.68577723  0.26794931  0.42825606
   0.18333708  0.30838452  0.46812847
   0.53566131  0.16248443  0.04975469
   0.04246008  0.22361152  0.09879123
   0.53792195  0.26369367  0.14948035
   0.03745511  0.30826667  0.19888171
   0.53582564  0.35634320  0.24954129
   0.03300150  0.40076734  0.29843261
   0.52877748  0.44536086  0.35018924
   0.53208939  0.99505750  0.40082184
   0.01491476  0.03391143  0.44838619
   0.74833908  0.88738006  0.02187068
   0.19801452  0.94432801  0.07607153
   0.21042721  0.49288096  0.12555989
   0.70384724  0.53664992  0.17395301
   0.19767405  0.58273110  0.22422394
   0.70072502  0.62868724  0.27505853
   0.20215364  0.67339692  0.32297433
   0.69679004  0.72094509  0.37351595
   0.20249418  0.76482071  0.42396305
   0.74281153  0.80646002  0.47647498
   0.03577580  0.66269006  0.04970401
   0.54267619  0.72342164  0.09890070
   0.03869544  0.76387718  0.14931781
   0.53815385  0.80812769  0.19924344
   0.03687488  0.85626943  0.24879981
   0.53465400  0.90143721  0.29926023
   0.03664359  0.94464133  0.34869716
   0.02059507  0.49518193  0.39701972
   0.52119335  0.55250629  0.44811914
   0.75152381  0.38713545  0.97830552
   0.30246291  0.44403453  0.92391528
   0.29005904  0.99285617  0.87405502
   0.79585599  0.03669314  0.82601132
   0.30333432  0.08329759  0.77507571
   0.80345865  0.12925229  0.72518044
   0.30433089  0.17378673  0.67466538
   0.81896473  0.21881482  0.62613684
   0.31435464  0.26815417  0.57173638
   0.81666830  0.30851621  0.53185882
   0.46430132  0.16257354  0.95022375
   0.95763372  0.22365312  0.90120318
   0.46211877  0.26373002  0.85051883
   0.96263005  0.30831369  0.80111081
   0.46428983  0.35641938  0.75045749
   0.96711948  0.40086345  0.70156571
   0.47137118  0.44548231  0.64980405
   0.46797921  0.99523801  0.59919736
   0.98532764  0.03411972  0.55161994
   0.25176719  0.88740949  0.97812155
   0.80200772  0.94439381  0.92392913
   0.78964278  0.49288990  0.87443554
   0.29623918  0.53669183  0.82604506
   0.80244500  0.58279655  0.77577644
   0.29941032  0.62877983  0.72494528
   0.79802842  0.67350456  0.67703670
   0.30334277  0.72106322  0.62648009
   0.79747868  0.76506772  0.57606249
   0.25698501  0.80663535  0.52353665
   0.96415348  0.66278456  0.95027451
   0.45743083  0.72345468  0.90109456
   0.96136364  0.76390972  0.85068519
   0.46194547  0.80818141  0.80075397
   0.96323854  0.85634121  0.75120777
   0.46547397  0.90151940  0.70073707
   0.96352644  0.94476121  0.65131722
   0.97945999  0.49535327  0.60296380
   0.47920803  0.55273851  0.55183251
   0.00006239  0.13006649  0.00000611
   0.50006291  0.63017653  0.00001168
   0.49999905  0.06191519  0.50001588
   0.00003053  0.56616300  0.50001207
Direct configuration=     4
   0.50010115  0.26009349  0.49997120
   0.24837520  0.38726242  0.02166893
   0.69678705  0.44391761  0.07608669
   0.70918924  0.99277979  0.12600374
   0.20353868  0.03667996  0.17398224
   0.69603502  0.08322992  0.22491430
   0.19585954  0.12914565  0.27484682
   0.69514367  0.17366009  0.32532402
   0.18056957  0.21879125  0.37389787
   0.68594383  0.26799451  0.42819348
   0.18213718  0.30865544  0.46810902
   0.53585618  0.16247236  0.04974504
   0.04301801  0.22359352  0.09881099
   0.53871667  0.26370299  0.14953252
   0.03815208  0.30826891  0.19891969
   0.53646014  0.35630967  0.24953806
   0.03372058  0.40075148  0.29840992
   0.52959416  0.44532254  0.35014689
   0.53261281  0.99517030  0.40084042
   0.01542559  0.03390942  0.44842096
   0.74812900  0.88752521  0.02185769
   0.19732554  0.94429390  0.07606552
   0.20964083  0.49286642  0.12564457
   0.70315505  0.53668215  0.17396204
   0.19687743  0.58275895  0.22423650
   0.69995105  0.62867179  0.27506131
   0.20131646  0.67337888  0.32293495
   0.69599007  0.72100026  0.37345081
   0.20151823  0.76480075  0.42395787
   0.74247208  0.80634606  0.47653720
   0.03601226  0.66272115  0.04970589
   0.54326281  0.72331812  0.09891243
   0.03948716  0.76389628  0.14936777
   0.53882164  0.80809517  0.19926030
   0.03760168  0.85629130  0.24879188
   0.53530532  0.90144440  0.29923796
   0.03731113  0.94472019  0.34864921
   0.02127269  0.49510419  0.39704380
   0.52184630  0.55240926  0.44803237
   0.75172374  0.38730533  0.97832444
   0.30323588  0.44399032  0.92391634
   0.29087226  0.99279666  0.87399252
   0.79653920  0.03672749  0.82601759
   0.30407849  0.08329799  0.77508146
   0.80423947  0.12923095  0.72515270
   0.30499772  0.17378585  0.67468208
   0.81961548  0.21894475  0.62610248
   0.31418888  0.26819349  0.57179981
   0.81786304  0.30878516  0.53187857
   0.46410854  0.16256187  0.95023378
   0.95707922  0.22363570  0.90118314
   0.46132674  0.26374123  0.85046698
   0.96193449  0.30831928  0.80107286
   0.46365293  0.35639061  0.75046081
   0.96639785  0.40085342  0.70158770
   0.47055160  0.44545070  0.64984796
   0.46745539  0.99535557  0.59917865
   0.98482814  0.03411883  0.55158659
   0.25198074  0.88755685  0.97813451
   0.80270020  0.94436465  0.92393549
   0.79042926  0.49287984  0.87435089
   0.29693199  0.53672524  0.82603603
   0.80323961  0.58282389  0.77576320
   0.30018007  0.62875955  0.72494086
   0.79885569  0.67348113  0.67707465
   0.30413711  0.72111307  0.62654502
   0.79845852  0.76504057  0.57606690
   0.25732745  0.80652408  0.52347484
   0.96392226  0.66281358  0.95027257
   0.45684354  0.72335089  0.90108266
   0.96057250  0.76393021  0.85063529
   0.46127526  0.80815090  0.80073695
   0.96250871  0.85636718  0.75121509
   0.46481983  0.90153295  0.70075989
   0.96285332  0.94484651  0.65136629
   0.97877050  0.49528416  0.60293951
   0.47857790  0.55264048  0.55191866
   0.00006235  0.13026699  0.00000630
   0.50006057  0.63033609  0.00001085
   0.49999768  0.06103708  0.50001706
   0.00001980  0.56599715  0.50001516
Direct configuration=     5
   0.50010180  0.25990310  0.49997095
   0.24819368  0.38741884  0.02165147
   0.69607606  0.44387029  0.07608605
   0.70844048  0.99272147  0.12606153
   0.20290979  0.03671069  0.17397620
   0.69534926  0.08323213  0.22490857
   0.19513900  0.12912951  0.27487146
   0.69452720  0.17366672  0.32530768
   0.17996630  0.21891777  0.37392888
   0.68609768  0.26803624  0.42813569
   0.18102903  0.30890565  0.46809106
   0.53603615  0.16246122  0.04973613
   0.04353327  0.22357689  0.09882923
   0.53945063  0.26371160  0.14958069
   0.03879577  0.30827097  0.19895476
   0.53704612  0.35627871  0.24953509
   0.03438468  0.40073684  0.29838897
   0.53034840  0.44528715  0.35010779
   0.53309621  0.99527448  0.40085758
   0.01589736  0.03390756  0.44845307
   0.74793497  0.88765927  0.02184569
   0.19668924  0.94426239  0.07605996
   0.20891457  0.49285300  0.12572278
   0.70251579  0.53671191  0.17397038
   0.19614171  0.58278467  0.22424809
   0.69923626  0.62865751  0.27506388
   0.20054329  0.67336222  0.32289859
   0.69525126  0.72105120  0.37339065
   0.20061690  0.76478232  0.42395308
   0.74215859  0.80624081  0.47659466
   0.03623065  0.66274985  0.04970762
   0.54380457  0.72322252  0.09892326
   0.04021834  0.76391393  0.14941390
   0.53943838  0.80806514  0.19927587
   0.03827291  0.85631150  0.24878455
   0.53590684  0.90145104  0.29921739
   0.03792764  0.94479303  0.34860493
   0.02189850  0.49503240  0.39706604
   0.52244932  0.55231965  0.44795223
   0.75190839  0.38746222  0.97834190
   0.30394976  0.44394949  0.92391732
   0.29162330  0.99274170  0.87393480
   0.79717018  0.03675922  0.82602339
   0.30476576  0.08329837  0.77508677
   0.80496059  0.12921125  0.72512707
   0.30561356  0.17378505  0.67469750
   0.82021648  0.21906474  0.62607073
   0.31403580  0.26822981  0.57185838
   0.81896644  0.30903354  0.53189681
   0.46393051  0.16255109  0.95024303
   0.95656711  0.22361961  0.90116462
   0.46059528  0.26375158  0.85041909
   0.96129211  0.30832443  0.80103781
   0.46306473  0.35636403  0.75046388
   0.96573139  0.40084415  0.70160802
   0.46979467  0.44542152  0.64988852
   0.46697161  0.99546415  0.59916137
   0.98436683  0.03411800  0.55155579
   0.25217797  0.88769294  0.97814649
   0.80333974  0.94433773  0.92394137
   0.79115561  0.49287054  0.87427272
   0.29757183  0.53675610  0.82602770
   0.80397347  0.58284913  0.77575097
   0.30089095  0.62874083  0.72493679
   0.79961971  0.67345950  0.67710969
   0.30487071  0.72115910  0.62660499
   0.79936344  0.76501550  0.57607097
   0.25764371  0.80642132  0.52341775
   0.96370871  0.66284037  0.95027078
   0.45630115  0.72325503  0.90107166
   0.95984186  0.76394913  0.85058921
   0.46065629  0.80812273  0.80072124
   0.96183468  0.85639117  0.75122185
   0.46421570  0.90154546  0.70078097
   0.96223166  0.94492529  0.65141160
   0.97813372  0.49522034  0.60291707
   0.47799596  0.55254995  0.55199823
   0.00006231  0.13045215  0.00000648
   0.50005841  0.63048346  0.00001009
   0.49999641  0.06022612  0.50001815
   0.00000990  0.56584398  0.50001801
Direct configuration=     6
   0.50010185  0.25988953  0.49997093
   0.24818074  0.38742998  0.02165023
   0.69602539  0.44386692  0.07608601
   0.70838712  0.99271732  0.12606565
   0.20286497  0.03671288  0.17397577
   0.69530038  0.08323228  0.22490816
   0.19508765  0.12912836  0.27487322
   0.69448326  0.17366719  0.32530652
   0.17992330  0.21892679  0.37393109
   0.68610865  0.26803922  0.42813157
   0.18095005  0.30892348  0.46808978
   0.53604898  0.16246043  0.04973550
   0.04356999  0.22357571  0.09883053
   0.53950294  0.26371221  0.14958413
   0.03884165  0.30827112  0.19895726
   0.53708789  0.35627650  0.24953487
   0.03443202  0.40073580  0.29838747
   0.53040216  0.44528463  0.35010500
   0.53313067  0.99528190  0.40085880
   0.01593099  0.03390743  0.44845536
   0.74792114  0.88766882  0.02184484
   0.19664389  0.94426015  0.07605956
   0.20886281  0.49285204  0.12572835
   0.70247023  0.53671403  0.17397098
   0.19608927  0.58278651  0.22424892
   0.69918532  0.62865649  0.27506406
   0.20048819  0.67336103  0.32289600
   0.69519860  0.72105483  0.37338636
   0.20055266  0.76478100  0.42395274
   0.74213625  0.80623331  0.47659876
   0.03624621  0.66275190  0.04970774
   0.54384318  0.72321570  0.09892403
   0.04027045  0.76391518  0.14941719
   0.53948233  0.80806300  0.19927698
   0.03832075  0.85631294  0.24878403
   0.53594971  0.90145151  0.29921593
   0.03797158  0.94479822  0.34860177
   0.02194310  0.49502728  0.39706763
   0.52249230  0.55231326  0.44794652
   0.75192155  0.38747340  0.97834315
   0.30400064  0.44394658  0.92391739
   0.29167683  0.99273778  0.87393069
   0.79721515  0.03676148  0.82602381
   0.30481474  0.08329839  0.77508715
   0.80501199  0.12920985  0.72512525
   0.30565745  0.17378499  0.67469860
   0.82025932  0.21907330  0.62606847
   0.31402489  0.26823239  0.57186256
   0.81904508  0.30905124  0.53189811
   0.46391782  0.16255032  0.95024369
   0.95653061  0.22361847  0.90116330
   0.46054314  0.26375232  0.85041568
   0.96124633  0.30832480  0.80103531
   0.46302281  0.35636214  0.75046410
   0.96568389  0.40084349  0.70160946
   0.46974072  0.44541944  0.64989141
   0.46693713  0.99547189  0.59916014
   0.98433395  0.03411795  0.55155360
   0.25219203  0.88770264  0.97814734
   0.80338532  0.94433581  0.92394179
   0.79120737  0.49286988  0.87426715
   0.29761743  0.53675830  0.82602710
   0.80402577  0.58285093  0.77575010
   0.30094162  0.62873949  0.72493649
   0.79967417  0.67345796  0.67711219
   0.30492300  0.72116238  0.62660926
   0.79942794  0.76501371  0.57607126
   0.25766625  0.80641399  0.52341368
   0.96369349  0.66284228  0.95027065
   0.45626250  0.72324820  0.90107088
   0.95978978  0.76395048  0.85058592
   0.46061218  0.80812072  0.80072012
   0.96178664  0.85639288  0.75122233
   0.46417265  0.90154635  0.70078247
   0.96218735  0.94493090  0.65141483
   0.97808833  0.49521579  0.60291547
   0.47795448  0.55254350  0.55200390
   0.00006231  0.13046535  0.00000650
   0.50005826  0.63049396  0.00001004
   0.49999632  0.06016831  0.50001822
   0.00000919  0.56583307  0.50001822
Direct configuration=     7
   0.50009814  0.25981466  0.49997065
   0.24829638  0.38745469  0.02164876
   0.69599988  0.44383627  0.07609195
   0.70823576  0.99269935  0.12605935
   0.20288585  0.03676889  0.17398662
   0.69509038  0.08319429  0.22491132
   0.19510852  0.12916597  0.27488062
   0.69435824  0.17366497  0.32530921
   0.17992373  0.21893879  0.37395490
   0.68600336  0.26802042  0.42814215
   0.18110798  0.30890168  0.46800550
   0.53589573  0.16243812  0.04975512
   0.04361323  0.22366624  0.09880559
   0.53948480  0.26368653  0.14958616
   0.03890213  0.30822467  0.19898824
   0.53716859  0.35628269  0.24953232
   0.03447396  0.40071318  0.29838197
   0.53062088  0.44527172  0.35009538
   0.53323577  0.99519276  0.40086014
   0.01586879  0.03383075  0.44849266
   0.74805477  0.88769640  0.02183756
   0.19660546  0.94423819  0.07605649
   0.20865248  0.49285307  0.12573218
   0.70249182  0.53671881  0.17398182
   0.19590962  0.58277893  0.22426625
   0.69904508  0.62866508  0.27505045
   0.20039576  0.67335847  0.32290857
   0.69501738  0.72107638  0.37336715
   0.20046130  0.76468826  0.42393348
   0.74232042  0.80625859  0.47661370
   0.03612822  0.66272724  0.04972423
   0.54386591  0.72327594  0.09890465
   0.04026479  0.76391555  0.14941283
   0.53955381  0.80804006  0.19930257
   0.03839313  0.85634530  0.24877837
   0.53594715  0.90148763  0.29920023
   0.03807330  0.94480933  0.34861350
   0.02204385  0.49509994  0.39704887
   0.52247821  0.55236129  0.44792779
   0.75180771  0.38749839  0.97834452
   0.30402714  0.44391558  0.92391117
   0.29182925  0.99272192  0.87393733
   0.79719535  0.03681884  0.82601289
   0.30502448  0.08326067  0.77508491
   0.80499119  0.12925026  0.72511842
   0.30578280  0.17378262  0.67469589
   0.82025353  0.21908491  0.62604415
   0.31412685  0.26821704  0.57185211
   0.81889248  0.30902639  0.53198228
   0.46407027  0.16252880  0.95022393
   0.95649144  0.22371064  0.90118830
   0.46056382  0.26372769  0.85041402
   0.96118427  0.30827925  0.80100477
   0.46294217  0.35636866  0.75046727
   0.96564200  0.40082011  0.70161423
   0.46951758  0.44540511  0.64990154
   0.46683740  0.99538080  0.59915931
   0.98439827  0.03404554  0.55151573
   0.25205877  0.88773191  0.97815448
   0.80342556  0.94431407  0.92394476
   0.79141802  0.49287268  0.87426341
   0.29759506  0.53676457  0.82601633
   0.80420560  0.58284330  0.77573334
   0.30107883  0.62874964  0.72495008
   0.79976260  0.67345699  0.67709915
   0.30510177  0.72118245  0.62662749
   0.79952170  0.76492510  0.57609099
   0.25748401  0.80643855  0.52339786
   0.96381258  0.66281773  0.95025431
   0.45624290  0.72331153  0.90109003
   0.95979597  0.76395260  0.85059052
   0.46053874  0.80809866  0.80069494
   0.96171355  0.85642575  0.75122831
   0.46417606  0.90158214  0.70079840
   0.96208331  0.94494077  0.65140313
   0.97798633  0.49528567  0.60293373
   0.47797040  0.55259150  0.55202110
   0.00006333  0.13046902  0.00000638
   0.50005893  0.63051847  0.00000975
   0.49999310  0.06015777  0.50001788
   0.00000731  0.56590880  0.50001959
Direct configuration=     8
   0.50009343  0.25971949  0.49997029
   0.24844338  0.38748610  0.02164690
   0.69596745  0.44379731  0.07609950
   0.70804336  0.99267651  0.12605135
   0.20291239  0.03684008  0.17400041
   0.69482344  0.08314600  0.22491533
   0.19513505  0.12921378  0.27489002
   0.69419931  0.17366215  0.32531264
   0.17992428  0.21895404  0.37398516
   0.68586954  0.26799652  0.42815560
   0.18130874  0.30887397  0.46789836
   0.53570093  0.16240978  0.04978006
   0.04366820  0.22378131  0.09877389
   0.53946174  0.26365389  0.14958875
   0.03897900  0.30816562  0.19902762
   0.53727117  0.35629056  0.24952907
   0.03452727  0.40068443  0.29837498
   0.53089890  0.44525531  0.35008316
   0.53336937  0.99507946  0.40086185
   0.01578973  0.03373328  0.44854008
   0.74822462  0.88773146  0.02182832
   0.19655662  0.94421028  0.07605259
   0.20838513  0.49285437  0.12573706
   0.70251927  0.53672489  0.17399561
   0.19568126  0.58276929  0.22428828
   0.69886682  0.62867599  0.27503315
   0.20027827  0.67335523  0.32292455
   0.69478702  0.72110377  0.37334274
   0.20034518  0.76457037  0.42390900
   0.74255452  0.80629072  0.47663268
   0.03597822  0.66269590  0.04974519
   0.54389480  0.72335250  0.09888003
   0.04025759  0.76391601  0.14940728
   0.53964468  0.80801090  0.19933510
   0.03848515  0.85638642  0.24877118
   0.53594389  0.90153355  0.29918028
   0.03820260  0.94482345  0.34862841
   0.02217191  0.49519229  0.39702502
   0.52246029  0.55242234  0.44790398
   0.75166301  0.38753015  0.97834628
   0.30406083  0.44387617  0.92390326
   0.29202300  0.99270175  0.87394577
   0.79717018  0.03689174  0.82599901
   0.30529108  0.08321272  0.77508205
   0.80496475  0.12930164  0.72510973
   0.30594214  0.17377960  0.67469244
   0.82024617  0.21909968  0.62601324
   0.31425647  0.26819753  0.57183882
   0.81869851  0.30899481  0.53208929
   0.46426407  0.16250144  0.95019880
   0.95644166  0.22382780  0.90122007
   0.46059010  0.26369639  0.85041192
   0.96110539  0.30822136  0.80096595
   0.46283968  0.35637696  0.75047129
   0.96558875  0.40079038  0.70162029
   0.46923393  0.44538690  0.64991442
   0.46671063  0.99526501  0.59915824
   0.98448002  0.03395350  0.55146759
   0.25188939  0.88776913  0.97816355
   0.80347670  0.94428644  0.92394853
   0.79168579  0.49287624  0.87425865
   0.29756661  0.53677255  0.82600262
   0.80443420  0.58283359  0.77571203
   0.30125325  0.62876254  0.72496734
   0.79987501  0.67345575  0.67708258
   0.30532901  0.72120796  0.62665065
   0.79964090  0.76481246  0.57611607
   0.25725237  0.80646977  0.52337774
   0.96396395  0.66278652  0.95023353
   0.45621800  0.72339202  0.90111438
   0.95980384  0.76395531  0.85059636
   0.46044538  0.80807063  0.80066294
   0.96162064  0.85646752  0.75123591
   0.46418040  0.90162762  0.70081865
   0.96195104  0.94495332  0.65138827
   0.97785666  0.49537451  0.60295693
   0.47799064  0.55265251  0.55204297
   0.00006464  0.13047369  0.00000623
   0.50005978  0.63054963  0.00000938
   0.49998902  0.06014437  0.50001745
   0.00000491  0.56600508  0.50002135
Direct configuration=     9
   0.50009242  0.25969905  0.49997021
   0.24847495  0.38749284  0.02164650
   0.69596048  0.44378894  0.07610113
   0.70800203  0.99267160  0.12604963
   0.20291809  0.03685537  0.17400337
   0.69476611  0.08313563  0.22491619
   0.19514074  0.12922405  0.27489204
   0.69416518  0.17366154  0.32531337
   0.17992439  0.21895732  0.37399166
   0.68584079  0.26799139  0.42815849
   0.18135186  0.30886801  0.46787535
   0.53565910  0.16240369  0.04978542
   0.04368000  0.22380603  0.09876708
   0.53945679  0.26364687  0.14958931
   0.03899552  0.30815293  0.19903607
   0.53729320  0.35629225  0.24952838
   0.03453872  0.40067825  0.29837348
   0.53095861  0.44525179  0.35008054
   0.53339806  0.99505512  0.40086221
   0.01577275  0.03371235  0.44855027
   0.74826110  0.88773899  0.02182633
   0.19654612  0.94420429  0.07605175
   0.20832770  0.49285465  0.12573810
   0.70252517  0.53672620  0.17399857
   0.19563221  0.58276722  0.22429301
   0.69882854  0.62867833  0.27502944
   0.20025303  0.67335453  0.32292798
   0.69473754  0.72110966  0.37333749
   0.20032023  0.76454505  0.42390374
   0.74260480  0.80629762  0.47663676
   0.03594601  0.66268917  0.04974969
   0.54390101  0.72336894  0.09887474
   0.04025605  0.76391611  0.14940609
   0.53966419  0.80800463  0.19934209
   0.03850491  0.85639525  0.24876964
   0.53594319  0.90154342  0.29917599
   0.03823037  0.94482649  0.34863161
   0.02219941  0.49521212  0.39701990
   0.52245645  0.55243545  0.44789886
   0.75163193  0.38753697  0.97834665
   0.30406807  0.44386771  0.92390156
   0.29206461  0.99269742  0.87394758
   0.79716477  0.03690740  0.82599603
   0.30534834  0.08320242  0.77508144
   0.80495907  0.12931267  0.72510787
   0.30597637  0.17377895  0.67469170
   0.82024459  0.21910286  0.62600660
   0.31428431  0.26819334  0.57183597
   0.81865685  0.30898802  0.53211227
   0.46430569  0.16249556  0.95019341
   0.95643097  0.22385297  0.90122689
   0.46059574  0.26368966  0.85041146
   0.96108844  0.30820892  0.80095761
   0.46281766  0.35637874  0.75047216
   0.96557731  0.40078400  0.70162159
   0.46917301  0.44538299  0.64991719
   0.46668341  0.99524014  0.59915801
   0.98449758  0.03393373  0.55145725
   0.25185301  0.88777712  0.97816550
   0.80348769  0.94428051  0.92394934
   0.79174330  0.49287700  0.87425763
   0.29756051  0.53677427  0.82599968
   0.80448329  0.58283151  0.77570745
   0.30129071  0.62876530  0.72497105
   0.79989916  0.67345548  0.67707902
   0.30537782  0.72121343  0.62665562
   0.79966650  0.76478827  0.57612146
   0.25720262  0.80647648  0.52337342
   0.96399646  0.66277981  0.95022907
   0.45621265  0.72340931  0.90111961
   0.95980553  0.76395589  0.85059762
   0.46042533  0.80806461  0.80065607
   0.96160069  0.85647649  0.75123754
   0.46418133  0.90163739  0.70082300
   0.96192264  0.94495601  0.65138507
   0.97782881  0.49539359  0.60296192
   0.47799499  0.55266562  0.55204767
   0.00006492  0.13047469  0.00000620
   0.50005996  0.63055632  0.00000930
   0.49998814  0.06014149  0.50001736
   0.00000440  0.56602575  0.50002172
Direct configuration=    10
   0.50010148  0.25970729  0.49997095
   0.24851651  0.38751089  0.02163281
   0.69588592  0.44376491  0.07610648
   0.70799103  0.99267163  0.12605633
   0.20289717  0.03687217  0.17399764
   0.69469149  0.08312391  0.22491593
   0.19513285  0.12924441  0.27490883
   0.69415959  0.17365369  0.32531970
   0.17993780  0.21891914  0.37400005
   0.68593931  0.26798400  0.42817695
   0.18130234  0.30884307  0.46790827
   0.53550945  0.16238500  0.04979229
   0.04361529  0.22385070  0.09874415
   0.53943107  0.26366397  0.14958779
   0.03894487  0.30810133  0.19905427
   0.53730710  0.35629823  0.24952703
   0.03456181  0.40067063  0.29837677
   0.53104130  0.44524101  0.35007560
   0.53340859  0.99497679  0.40087820
   0.01580433  0.03364686  0.44857135
   0.74829848  0.88774676  0.02181140
   0.19649871  0.94419023  0.07605377
   0.20829635  0.49286650  0.12575891
   0.70249046  0.53671235  0.17399970
   0.19552900  0.58277439  0.22429802
   0.69876181  0.62868983  0.27503176
   0.20019505  0.67334857  0.32292225
   0.69469616  0.72110706  0.37331213
   0.20020183  0.76449876  0.42389123
   0.74272584  0.80631257  0.47666535
   0.03581493  0.66266761  0.04975335
   0.54382212  0.72338539  0.09885563
   0.04024221  0.76396159  0.14940441
   0.53960941  0.80797438  0.19934545
   0.03847619  0.85643441  0.24877501
   0.53592141  0.90155621  0.29916870
   0.03823717  0.94484121  0.34864121
   0.02220248  0.49527287  0.39699718
   0.52249684  0.55249382  0.44788638
   0.75159387  0.38755514  0.97836130
   0.30414588  0.44384438  0.92389665
   0.29207615  0.99269934  0.87394109
   0.79718609  0.03692554  0.82600143
   0.30542121  0.08319232  0.77508171
   0.80496774  0.12933531  0.72509076
   0.30598006  0.17377117  0.67468469
   0.82022796  0.21906579  0.62599776
   0.31418641  0.26818816  0.57181793