unknown system                          
           1
    38.789834    0.000000    0.000000
     0.000000    5.110600    0.000000
     0.000000    0.000000    7.531000
   O    Ti
     1    80
Direct configuration=     1
   0.49811935  0.54542570  0.29840714
   0.38185368  0.34173679  0.87128424
   0.38046428  0.64483854  0.36681395
   0.45764881  0.30026997  0.21027115
   0.45964962  0.67569299  0.73935487
   0.34536843  0.77329876  0.04173635
   0.34520656  0.21500656  0.54456615
   0.45731722  0.80655178  0.38841423
   0.45830194  0.17560489  0.86527249
   0.31609091  0.34114622  0.21155746
   0.31676855  0.65083981  0.71177015
   0.42279822  0.26090231  0.54813273
   0.42194471  0.74656060  0.05141558
   0.19254363  0.83203380  0.99765173
   0.19262730  0.16483183  0.49751868
   0.30317865  0.83093482  0.35809655
   0.30327793  0.16121064  0.85898308
   0.38764793  0.84311037  0.72105162
   0.38586040  0.14570879  0.22763556
   0.17788461  0.34473298  0.14438479
   0.17811016  0.65156632  0.64550982
   0.26922118  0.31274120  0.52535158
   0.26905093  0.68447764  0.02373230
   0.03876901  0.81537496  0.97727515
   0.03880610  0.18060388  0.47699567
   0.15021799  0.78292694  0.31142562
   0.15014242  0.21360326  0.81125322
   0.24741733  0.84841645  0.67813613
   0.24686908  0.14618010  0.18143229
   0.03595875  0.31748388  0.12556141
   0.03599146  0.67848041  0.62570764
   0.11530196  0.34428869  0.48415365
   0.11522643  0.65213353  0.98387815
   0.22644059  0.31479660  0.83339227
   0.22635859  0.67725737  0.33256342
   0.10760089  0.84454180  0.62901944
   0.10756288  0.15160276  0.12914101
   0.07309124  0.25939200  0.80380534
   0.07313118  0.73643663  0.30390335
   0.61577758  0.64497971  0.36693399
   0.61439216  0.34190470  0.87136951
   0.53663841  0.67578948  0.73937049
   0.53862916  0.30049224  0.21034615
   0.65104839  0.21540436  0.54472531
   0.65088901  0.77324121  0.04188759
   0.53793402  0.17574276  0.86533678
   0.53892217  0.80663737  0.38842206
   0.67953918  0.65108567  0.71200050
   0.68021090  0.34128174  0.21182426
   0.57431642  0.74677388  0.05148607
   0.57345924  0.26088466  0.54819350
   0.80362804  0.16507983  0.49779203
   0.80371099  0.83213259  0.99793082
   0.69297096  0.16133619  0.85921116
   0.69306724  0.83120197  0.35832326
   0.61042978  0.14587952  0.22772940
   0.60864506  0.84324370  0.72117565
   0.81820777  0.65170551  0.64581250
   0.81842814  0.34494482  0.14469927
   0.72720535  0.68487564  0.02403640
   0.72703891  0.31266074  0.52563206
   0.95744162  0.18080783  0.47701489
   0.95746783  0.81551557  0.97734049
   0.84612421  0.21350936  0.81145949
   0.84605087  0.78335195  0.31163240
   0.74944463  0.14637662  0.18181042
   0.74890290  0.84858894  0.67854587
   0.96033246  0.67876227  0.62579441
   0.96035460  0.31755270  0.12560787
   0.88101817  0.65235389  0.98402080
   0.88094510  0.34440927  0.48429727
   0.76990377  0.67726520  0.33288312
   0.76982423  0.31519443  0.83369599
   0.88874660  0.15177562  0.12930014
   0.88871317  0.84471578  0.62917223
   0.92314416  0.73639697  0.30403258
   0.92318244  0.25976108  0.80391236
   0.99813221  0.77932132  0.29304030
   0.99813265  0.21513419  0.79235358
   0.49812867  0.30073872  0.52850313
   0.49813096  0.78240244  0.06600195
Direct configuration=     2
   0.49812109  0.54427285  0.29765463
   0.38189941  0.34193375  0.87060132
   0.38044802  0.64462486  0.36627522
   0.45782699  0.30162642  0.21175158
   0.45959688  0.67589043  0.73954397
   0.34552686  0.77285344  0.04168067
   0.34532778  0.21559458  0.54444625
   0.45750619  0.80550417  0.38762205
   0.45829611  0.17519903  0.86497238
   0.31606090  0.34040222  0.21201325
   0.31669738  0.65163117  0.71214347
   0.42285038  0.26076488  0.54777478
   0.42200873  0.74677442  0.05156610
   0.19265606  0.83249407  0.99794281
   0.19274811  0.16436644  0.49780566
   0.30307430  0.83150034  0.35769280
   0.30317049  0.16066329  0.85860158
   0.38762423  0.84250031  0.72189555
   0.38586312  0.14649056  0.22826611
   0.17792131  0.34401971  0.14403290
   0.17814658  0.65227774  0.64515319
   0.26942695  0.31251162  0.52517321
   0.26926991  0.68471772  0.02361515
   0.03878375  0.81579279  0.97751175
   0.03882650  0.18015605  0.47722251
   0.15007726  0.78248371  0.31151520
   0.14999348  0.21406020  0.81136205
   0.24741373  0.84745922  0.67813447
   0.24686147  0.14707226  0.18149419
   0.03601842  0.31722106  0.12516025
   0.03605010  0.67880245  0.62531663
   0.11529748  0.34444627  0.48483133
   0.11522462  0.65196640  0.98458987
   0.22623880  0.31462039  0.83346216
   0.22615513  0.67739581  0.33268453
   0.10764452  0.84410198  0.62835135
   0.10761266  0.15206431  0.12848783
   0.07300713  0.25875984  0.80374148
   0.07304251  0.73707525  0.30383581
   0.61579264  0.64477189  0.36639443
   0.61434534  0.34209720  0.87068636
   0.53669114  0.67598569  0.73956022
   0.53845104  0.30184544  0.21182692
   0.65092740  0.21599053  0.54460938
   0.65073120  0.77279736  0.04183575
   0.53793888  0.17533660  0.86503497
   0.53873361  0.80559482  0.38763137
   0.67961026  0.65187585  0.71237464
   0.68024141  0.34053850  0.21227993
   0.57425252  0.74699029  0.05163733
   0.57340750  0.26074929  0.54783814
   0.80350643  0.16461856  0.49807460
   0.80359756  0.83258698  0.99821585
   0.69307818  0.16078567  0.85882588
   0.69317102  0.83176824  0.35791613
   0.61042586  0.14665993  0.22835793
   0.60866713  0.84263427  0.72201914
   0.81817058  0.65241665  0.64545741
   0.81839104  0.34423181  0.14434871
   0.72698734  0.68512044  0.02391640
   0.72683353  0.31242705  0.52545456
   0.95742127  0.18035964  0.47724033
   0.95745291  0.81593513  0.97757643
   0.84627342  0.21396570  0.81156917
   0.84619175  0.78290768  0.31172413
   0.74945366  0.14727034  0.18187340
   0.74890767  0.84762792  0.67854920
   0.96027509  0.67908665  0.62540447
   0.96029593  0.31728734  0.12520740
   0.88101859  0.65218417  0.98473298
   0.88094786  0.34456861  0.48497444
   0.77010757  0.67739478  0.33300289
   0.77002554  0.31502646  0.83376627
   0.88869657  0.15223486  0.12864617
   0.88866880  0.84427586  0.62850266
   0.92323404  0.73703578  0.30396196
   0.92326768  0.25912669  0.80384679
   0.99813257  0.77862843  0.29330254
   0.99813313  0.21581632  0.79264125
   0.49812858  0.30103743  0.52830507
   0.49813141  0.78227011  0.06616442
Direct configuration=     3
   0.49812370  0.54255158  0.29653107
   0.38196769  0.34222781  0.86958168
   0.38042375  0.64430582  0.36547086
   0.45809302  0.30365168  0.21396196
   0.45951815  0.67618523  0.73982630
   0.34576340  0.77218855  0.04159754
   0.34550877  0.21647252  0.54426722
   0.45778834  0.80394002  0.38643928
   0.45828741  0.17459305  0.86452430
   0.31601608  0.33929138  0.21269376
   0.31659111  0.65281271  0.71270087
   0.42292824  0.26055969  0.54724034
   0.42210430  0.74709367  0.05179083
   0.19282393  0.83318130  0.99837739
   0.19292848  0.16367158  0.49823414
   0.30291850  0.83234470  0.35708998
   0.30301008  0.15984607  0.85803197
   0.38758885  0.84158945  0.72315559
   0.38586717  0.14765777  0.22920757
   0.17797610  0.34295475  0.14350751
   0.17820096  0.65333993  0.64462072
   0.26973417  0.31216885  0.52490690
   0.26959686  0.68507618  0.02344022
   0.03880577  0.81641664  0.97786502
   0.03885697  0.17948743  0.47756120
   0.14986715  0.78182194  0.31164894
   0.14977111  0.21474244  0.81152455
   0.24740837  0.84603001  0.67813200
   0.24685011  0.14840431  0.18158660
   0.03610752  0.31682865  0.12456129
   0.03613764  0.67928328  0.62473282
   0.11529078  0.34468155  0.48584315
   0.11522192  0.65171686  0.98565249
   0.22593751  0.31435729  0.83356651
   0.22585137  0.67760251  0.33286535
   0.10770965  0.84344530  0.62735386
   0.10768700  0.15275343  0.12751260
   0.07288154  0.25781599  0.80364613
   0.07291013  0.73802876  0.30373496
   0.61581512  0.64446161  0.36558884
   0.61427543  0.34238460  0.86966637
   0.53676987  0.67627863  0.73984348
   0.53818510  0.30386586  0.21403780
   0.65074676  0.21686573  0.54443630
   0.65049557  0.77213465  0.04175834
   0.53794614  0.17473018  0.86458435
   0.53845209  0.80403824  0.38645082
   0.67971639  0.65305565  0.71293326
   0.68028696  0.33942880  0.21296029
   0.57415710  0.74731339  0.05186318
   0.57333024  0.26054718  0.54730756
   0.80332486  0.16392986  0.49849649
   0.80342820  0.83326543  0.99864141
   0.69323827  0.15996371  0.85825063
   0.69332597  0.83261372  0.35730826
   0.61042001  0.14782513  0.22929635
   0.60870009  0.84172434  0.72327851
   0.81811506  0.65347842  0.64492725
   0.81833564  0.34316724  0.14382528
   0.72666183  0.68548596  0.02373723
   0.72652690  0.31207815  0.52518954
   0.95739088  0.17969048  0.47757693
   0.95743062  0.81656155  0.97792870
   0.84649620  0.21464705  0.81173293
   0.84640208  0.78224437  0.31186110
   0.74946714  0.14860472  0.18196743
   0.74891480  0.84619306  0.67855418
   0.96018943  0.67957098  0.62482226
   0.96020833  0.31689114  0.12460946
   0.88101922  0.65193079  0.98579631
   0.88095200  0.34480651  0.48598550
   0.77041185  0.67758825  0.33318170
   0.77032612  0.31477567  0.83387121
   0.88862189  0.15292054  0.12766976
   0.88860256  0.84361902  0.62750294
   0.92336824  0.73798956  0.30385651
   0.92339495  0.25817951  0.80374889
   0.99813311  0.77759389  0.29369409
   0.99813386  0.21683479  0.79307075
   0.49812845  0.30148343  0.52800935
   0.49813208  0.78207253  0.06640699
Direct configuration=     4
   0.49812491  0.54301034  0.29670815
   0.38207467  0.34219669  0.86953921
   0.38047500  0.64473207  0.36581402
   0.45788960  0.30354414  0.21364874
   0.45950416  0.67578976  0.73951852
   0.34591972  0.77170928  0.04167413
   0.34564184  0.21710339  0.54431209
   0.45790537  0.80389851  0.38628879
   0.45830891  0.17473522  0.86508599
   0.31599349  0.33874784  0.21259051
   0.31652284  0.65352102  0.71262716
   0.42300055  0.25981716  0.54707269
   0.42217905  0.74716543  0.05205792
   0.19289762  0.83349886  0.99839023
   0.19300912  0.16328263  0.49826192
   0.30285253  0.83276579  0.35704986
   0.30294016  0.15943710  0.85804215
   0.38758059  0.84144283  0.72324043
   0.38592429  0.14806053  0.22900947
   0.17800510  0.34237813  0.14356300
   0.17822948  0.65392988  0.64469246
   0.26988924  0.31171449  0.52487437
   0.26976652  0.68544781  0.02343335
   0.03879356  0.81649794  0.97780656
   0.03885044  0.17941631  0.47749368
   0.14975263  0.78121776  0.31161198
   0.14965087  0.21537144  0.81149214
   0.24739855  0.84505089  0.67811398
   0.24684426  0.14936738  0.18161101
   0.03615151  0.31688196  0.12451190
   0.03617833  0.67926132  0.62468096
   0.11522988  0.34471141  0.48573296
   0.11516249  0.65170310  0.98557445
   0.22578352  0.31410818  0.83351442
   0.22569367  0.67784128  0.33286300
   0.10774685  0.84322734  0.62748184
   0.10773057  0.15298104  0.12763966
   0.07283240  0.25726964  0.80344129
   0.07285835  0.73859093  0.30351961
   0.61576264  0.64488934  0.36593090
   0.61416757  0.34235386  0.86962600
   0.53678405  0.67588086  0.73953727
   0.53838932  0.30375286  0.21372308
   0.65061395  0.21749460  0.54448037
   0.65033992  0.77165581  0.04183546
   0.53792383  0.17487328  0.86514448
   0.53833674  0.80400777  0.38630544
   0.67978498  0.65375691  0.71285963
   0.68031022  0.33888857  0.21285683
   0.57408250  0.74738430  0.05212883
   0.57325892  0.25980984  0.54714045
   0.80324291  0.16354238  0.49852439
   0.80335337  0.83358051  0.99865405
   0.69330739  0.15955348  0.85826014
   0.69339092  0.83303368  0.35726729
   0.61036301  0.14822715  0.22910015
   0.60870797  0.84157848  0.72336367
   0.81808639  0.65406977  0.64499608
   0.81830658  0.34258643  0.14387667
   0.72649128  0.68586448  0.02372911
   0.72637042  0.31161703  0.52515680
   0.95739716  0.17961880  0.47751005
   0.95744234  0.81664336  0.97787000
   0.84661719  0.21527560  0.81170303
   0.84651706  0.78163934  0.31182589
   0.74947393  0.14956591  0.18199240
   0.74892490  0.84521424  0.67853977
   0.96014947  0.67955605  0.62477029
   0.96016503  0.31693924  0.12455916
   0.88107768  0.65191097  0.98571978
   0.88101178  0.34483990  0.48587612
   0.77056968  0.67781824  0.33317636
   0.77047979  0.31453290  0.83382008
   0.88857844  0.15314749  0.12779414
   0.88856513  0.84339872  0.62762892
   0.92342099  0.73855334  0.30363996
   0.92344500  0.25762900  0.80354111
   0.99813314  0.77648917  0.29392761
   0.99813396  0.21792455  0.79330909
   0.49812832  0.30096835  0.52952740
   0.49813252  0.78246162  0.06540117
Direct configuration=     5
   0.49812597  0.54341497  0.29686433
   0.38216903  0.34216923  0.86950175
   0.38052020  0.64510804  0.36611670
   0.45771018  0.30344928  0.21337247
   0.45949183  0.67544095  0.73924704
   0.34605759  0.77128656  0.04174168
   0.34575922  0.21765983  0.54435167
   0.45800859  0.80386189  0.38615605
   0.45832787  0.17486061  0.86558143
   0.31597357  0.33826841  0.21249943
   0.31646262  0.65414578  0.71256214
   0.42306433  0.25916222  0.54692483
   0.42224498  0.74722872  0.05229349
   0.19296262  0.83377895  0.99840154
   0.19308023  0.16293956  0.49828642
   0.30279435  0.83313720  0.35701447
   0.30287849  0.15907637  0.85805112
   0.38757330  0.84131351  0.72331526
   0.38597467  0.14841577  0.22883474
   0.17803069  0.34186953  0.14361195
   0.17825463  0.65445024  0.64475573
   0.27002602  0.31131373  0.52484568
   0.26991616  0.68577561  0.02342728
   0.03878279  0.81656965  0.97775499
   0.03884468  0.17935358  0.47743413
   0.14965162  0.78068486  0.31157937
   0.14954481  0.21592625  0.81146355
   0.24738988  0.84418728  0.67809809
   0.24683910  0.15021684  0.18163254
   0.03619031  0.31692897  0.12446833
   0.03621422  0.67924196  0.62463521
   0.11517616  0.34473776  0.48563578
   0.11511007  0.65169097  0.98550562
   0.22564769  0.31388846  0.83346848
   0.22555458  0.67805189  0.33286093
   0.10777967  0.84303509  0.62759472
   0.10776900  0.15318179  0.12775172
   0.07278906  0.25678775  0.80326063
   0.07281267  0.73908678  0.30332967
   0.61571635  0.64526662  0.36623261
   0.61407243  0.34232675  0.86959040
   0.53679656  0.67553001  0.73926718
   0.53856946  0.30365319  0.21344549
   0.65049680  0.21804928  0.54451925
   0.65020263  0.77123344  0.04190349
   0.53790415  0.17499950  0.86563854
   0.53823501  0.80398090  0.38617720
   0.67984547  0.65437544  0.71279469
   0.68033073  0.33841208  0.21276558
   0.57401670  0.74744684  0.05236314
   0.57319602  0.25915947  0.54699305
   0.80317062  0.16320062  0.49854900
   0.80328737  0.83385842  0.99866519
   0.69336835  0.15919164  0.85826853
   0.69344821  0.83340410  0.35723116
   0.61031274  0.14858174  0.22892710
   0.60871491  0.84144983  0.72343877
   0.81806111  0.65459136  0.64505679
   0.81828095  0.34207414  0.14392199
   0.72634084  0.68619836  0.02372196
   0.72623240  0.31121030  0.52512792
   0.95740269  0.17955557  0.47745106
   0.95745268  0.81671552  0.97781823
   0.84672391  0.21583001  0.81167666
   0.84661847  0.78110568  0.31179484
   0.74947991  0.15041371  0.18201442
   0.74893381  0.84435089  0.67852707
   0.96011422  0.67954288  0.62472445
   0.96012684  0.31698167  0.12451478
   0.88112924  0.65189349  0.98565227
   0.88106452  0.34486935  0.48577965
   0.77070889  0.67802110  0.33317164
   0.77061533  0.31431877  0.83377498
   0.88854012  0.15334766  0.12790385
   0.88853212  0.84320441  0.62774003
   0.92346751  0.73905060  0.30344896
   0.92348915  0.25714343  0.80335784
   0.99813316  0.77551477  0.29413358
   0.99813406  0.21888576  0.79351932
   0.49812820  0.30051404  0.53086638
   0.49813290  0.78280481  0.06451400
Direct configuration=     6
   0.49812662  0.54260352  0.29686409
   0.38230356  0.34198095  0.86976530
   0.38063840  0.64562445  0.36665542
   0.45779450  0.30388918  0.21359931
   0.45946430  0.67552392  0.73900116
   0.34612191  0.77097205  0.04180772
   0.34583476  0.21808136  0.54442890
   0.45803770  0.80397082  0.38624854
   0.45832663  0.17508325  0.86589433
   0.31600106  0.33817686  0.21219914
   0.31645649  0.65441040  0.71236582
   0.42309625  0.25841398  0.54712503
   0.42225754  0.74731036  0.05225672
   0.19295425  0.83374066  0.99826667
   0.19307570  0.16290786  0.49816343
   0.30280721  0.83314392  0.35716157
   0.30289130  0.15907728  0.85822775
   0.38759346  0.84137596  0.72318155
   0.38598897  0.14855530  0.22841705
   0.17802624  0.34165296  0.14381511
   0.17824965  0.65465938  0.64498289
   0.27007293  0.31082338  0.52495229
   0.26996407  0.68617115  0.02353307
   0.03873563  0.81638846  0.97757477
   0.03880020  0.17957347  0.47725356
   0.14961555  0.78028034  0.31150915
   0.14951136  0.21635597  0.81138353
   0.24737363  0.84370438  0.67809877
   0.24684280  0.15073227  0.18161630
   0.03620320  0.31707963  0.12460096
   0.03622463  0.67910211  0.62476290
   0.11507993  0.34455417  0.48527614
   0.11501434  0.65189408  0.98515891
   0.22560908  0.31364615  0.83331459
   0.22551332  0.67831483  0.33274011
   0.10778244  0.84301735  0.62783868
   0.10777526  0.15319927  0.12799705
   0.07280047  0.25660488  0.80314905
   0.07282525  0.73929866  0.30321842
   0.61559737  0.64578145  0.36677005
   0.61393771  0.34214032  0.86985778
   0.53682435  0.67561027  0.73902054
   0.53848633  0.30409175  0.21367256
   0.65042123  0.21846968  0.54459226
   0.65013882  0.77091804  0.04196669
   0.53790516  0.17522353  0.86595048
   0.53820726  0.80409370  0.38627289
   0.67985201  0.65463611  0.71259747
   0.68030362  0.33832156  0.21246598
   0.57400455  0.74752883  0.05232514
   0.57316496  0.25841676  0.54719400
   0.80317420  0.16316878  0.49842830
   0.80329517  0.83381925  0.99853174
   0.69335435  0.15919207  0.85844678
   0.69343414  0.83340997  0.35737949
   0.61029965  0.14871927  0.22851232
   0.60869582  0.84151421  0.72330519
   0.81806662  0.65479919  0.64528149
   0.81828598  0.34185579  0.14412208
   0.72629226  0.68660016  0.02382908
   0.72618496  0.31071408  0.52523293
   0.95744666  0.17977952  0.47727047
   0.95749918  0.81653051  0.97763784
   0.84675764  0.21625889  0.81159621
   0.84665464  0.78070165  0.31172382
   0.74947627  0.15092228  0.18199878
   0.74894977  0.84387259  0.67852811
   0.96010374  0.67940884  0.62485196
   0.96011396  0.31712668  0.12464621
   0.88122486  0.65209190  0.98530443
   0.88116051  0.34468779  0.48541861
   0.77074956  0.67827694  0.33304936
   0.77065318  0.31407987  0.83362160
   0.88853410  0.15336288  0.12814716
   0.88852931  0.84318500  0.62798262
   0.92345453  0.73926226  0.30333827
   0.92347733  0.25696018  0.80324548
   0.99813295  0.77446087  0.29426896
   0.99813392  0.21990890  0.79363166
   0.49812869  0.29999507  0.53052431
   0.49813305  0.78216265  0.06426714
Direct configuration=     7
   0.49812717  0.54192262  0.29686388
   0.38241644  0.34182295  0.86998645
   0.38073759  0.64605777  0.36710747
   0.45786526  0.30425831  0.21378965
   0.45944120  0.67559354  0.73879483
   0.34617588  0.77070814  0.04186314
   0.34589815  0.21843507  0.54449370
   0.45806213  0.80406222  0.38632616
   0.45832558  0.17527007  0.86615689
   0.31602413  0.33810004  0.21194716
   0.31645135  0.65463245  0.71220109
   0.42312303  0.25778612  0.54729302
   0.42226809  0.74737886  0.05222587
   0.19294723  0.83370854  0.99815350
   0.19307190  0.16288125  0.49806022
   0.30281800  0.83314955  0.35728500
   0.30290205  0.15907804  0.85837597
   0.38761037  0.84142837  0.72306935
   0.38600097  0.14867238  0.22806657
   0.17802251  0.34147125  0.14398559
   0.17824548  0.65483488  0.64517351
   0.27011229  0.31041192  0.52504175
   0.27000428  0.68650306  0.02362184
   0.03869606  0.81623642  0.97742354
   0.03876288  0.17975799  0.47710204
   0.14958528  0.77994091  0.31145023
   0.14948329  0.21671656  0.81131638
   0.24735999  0.84329917  0.67809933
   0.24684590  0.15116477  0.18160268
   0.03621402  0.31720605  0.12471225
   0.03623337  0.67898476  0.62487004
   0.11499918  0.34440011  0.48497436
   0.11493402  0.65206452  0.98486799
   0.22557668  0.31344282  0.83318546
   0.22547869  0.67853547  0.33263872
   0.10778477  0.84300246  0.62804339
   0.10778052  0.15321394  0.12820290
   0.07281005  0.25645143  0.80305542
   0.07283580  0.73947645  0.30312508
   0.61549754  0.64621345  0.36722102
   0.61382467  0.34198389  0.87008215
   0.53684767  0.67567761  0.73881358
   0.53841657  0.30445975  0.21386309
   0.65035783  0.21882244  0.54465352
   0.65008527  0.77065337  0.04201973
   0.53790601  0.17541152  0.86621224
   0.53818398  0.80418836  0.38635319
   0.67985750  0.65485484  0.71243198
   0.68028088  0.33824561  0.21221458
   0.57399436  0.74759763  0.05229325
   0.57313890  0.25779355  0.54736262
   0.80317719  0.16314207  0.49832702
   0.80330172  0.83378639  0.99841976
   0.69334260  0.15919242  0.85859636
   0.69342233  0.83341489  0.35750397
   0.61028868  0.14883467  0.22816427
   0.60867980  0.84156823  0.72319310
   0.81807124  0.65497359  0.64547004
   0.81829021  0.34167257  0.14428997
   0.72625149  0.68693733  0.02391897
   0.72614515  0.31029769  0.52532104
   0.95748356  0.17996744  0.47711894
   0.95753821  0.81637527  0.97748647
   0.84678594  0.21661876  0.81152870
   0.84668498  0.78036263  0.31166422
   0.74947322  0.15134902  0.18198565
   0.74896315  0.84347124  0.67852899
   0.96009495  0.67929636  0.62495895
   0.96010315  0.31724836  0.12475649
   0.88130510  0.65225838  0.98501256
   0.88124105  0.34453543  0.48511565
   0.77078369  0.67849162  0.33294676
   0.77068493  0.31387941  0.83349289
   0.88852905  0.15337565  0.12835134
   0.88852695  0.84316873  0.62818618
   0.92344363  0.73943986  0.30324538
   0.92346741  0.25680640  0.80315120
   0.99813277  0.77357653  0.29438256
   0.99813380  0.22076743  0.79372592
   0.49812910  0.29955959  0.53023727
   0.49813317  0.78162381  0.06405999
Direct configuration=     8
   0.49812762  0.54210985  0.29701740
   0.38253299  0.34174157  0.86990392
   0.38088394  0.64628143  0.36714201
   0.45783999  0.30401298  0.21385040
   0.45943391  0.67580823  0.73873590
   0.34620661  0.77054542  0.04187455
   0.34594837  0.21876877  0.54445039
   0.45809338  0.80410865  0.38617040
   0.45835405  0.17536454  0.86622675
   0.31606155  0.33807563  0.21202400
   0.31646967  0.65476509  0.71226437
   0.42313704  0.25747388  0.54738833
   0.42228504  0.74734354  0.05218633
   0.19290160  0.83353170  0.99812837
   0.19302909  0.16304413  0.49802784
   0.30287721  0.83305759  0.35726428
   0.30296261  0.15922008  0.85836176
   0.38762927  0.84133534  0.72338344
   0.38603841  0.14905368  0.22822598
   0.17800949  0.34135231  0.14394677
   0.17822865  0.65492981  0.64512775
   0.27013540  0.31004441  0.52510573
   0.27001876  0.68680423  0.02368148
   0.03863768  0.81619014  0.97741795
   0.03870517  0.17984025  0.47709560
   0.14956856  0.77975045  0.31144022
   0.14947257  0.21690236  0.81129731
   0.24734606  0.84309255  0.67814350
   0.24685705  0.15140084  0.18157636
   0.03621897  0.31713843  0.12467408
   0.03623809  0.67908504  0.62483550
   0.11490415  0.34418479  0.48497148
   0.11484027  0.65227890  0.98486533
   0.22557847  0.31328093  0.83308245
   0.22548041  0.67874049  0.33255928
   0.10777460  0.84292002  0.62782342
   0.10777186  0.15330930  0.12797939
   0.07281535  0.25641150  0.80306065
   0.07284260  0.73955368  0.30313662
   0.61535000  0.64643686  0.36725198
   0.61370755  0.34190425  0.87000119
   0.53685664  0.67589507  0.73875557
   0.53844397  0.30421707  0.21392585
   0.65030644  0.21915818  0.54461045
   0.65005364  0.77048667  0.04202998
   0.53787861  0.17550536  0.86628191
   0.53815392  0.80423377  0.38619582
   0.67983887  0.65498692  0.71249428
   0.68024332  0.33821902  0.21229257
   0.57397734  0.74756585  0.05225330
   0.57312530  0.25748253  0.54746068
   0.80322024  0.16330264  0.49829515
   0.80334801  0.83360942  0.99839347
   0.69328015  0.15933309  0.85858200
   0.69336127  0.83332323  0.35748327
   0.61025108  0.14921019  0.22832391
   0.60866116  0.84147680  0.72350796
   0.81808950  0.65506625  0.64542607
   0.81830495  0.34155320  0.14425236
   0.72623630  0.68723995  0.02397903
   0.72612146  0.30992657  0.52538374
   0.95754038  0.18005678  0.47711229
   0.95759558  0.81632306  0.97748106
   0.84679752  0.21680273  0.81150696
   0.84670244  0.78017258  0.31165212
   0.74946246  0.15158176  0.18196085
   0.74897731  0.84326382  0.67857324
   0.96008898  0.67940041  0.62492434
   0.96009704  0.31717521  0.12471710
   0.88139949  0.65246986  0.98500777
   0.88133653  0.34431951  0.48510992
   0.77078206  0.67868865  0.33286661
   0.77068306  0.31372196  0.83338978
   0.88853786  0.15346552  0.12812566
   0.88853710  0.84308894  0.62796488
   0.92343623  0.73951759  0.30325724
   0.92346148  0.25676429  0.80315622
   0.99813200  0.77262517  0.29453494
   0.99813309  0.22166408  0.79385179
   0.49813024  0.29898824  0.53031413
   0.49813395  0.78087943  0.06407925
Direct configuration=     9
   0.49812817  0.54234491  0.29721013
   0.38267931  0.34163941  0.86980031
   0.38106769  0.64656223  0.36718537
   0.45780826  0.30370499  0.21392666
   0.45942474  0.67607777  0.73866191
   0.34624520  0.77034112  0.04188887
   0.34601142  0.21918772  0.54439601
   0.45813260  0.80416695  0.38597486
   0.45838980  0.17548316  0.86631445
   0.31610853  0.33804498  0.21212045
   0.31649267  0.65493160  0.71234383
   0.42315463  0.25708188  0.54750799
   0.42230631  0.74729918  0.05213669
   0.19284431  0.83330968  0.99809681
   0.19297535  0.16324862  0.49798719
   0.30295155  0.83294215  0.35723827
   0.30303864  0.15939841  0.85834394
   0.38765299  0.84121854  0.72377778
   0.38608540  0.14953238  0.22842612
   0.17799314  0.34120299  0.14389805
   0.17820754  0.65504899  0.64507030
   0.27016441  0.30958302  0.52518605
   0.27003695  0.68718235  0.02375636
   0.03856439  0.81613204  0.97741092
   0.03863271  0.17994353  0.47708750
   0.14954758  0.77951133  0.31142767
   0.14945912  0.21713562  0.81127338
   0.24732858  0.84283316  0.67819896
   0.24687105  0.15169721  0.18154330
   0.03622518  0.31705354  0.12462617
   0.03624402  0.67921094  0.62479212
   0.11478484  0.34391446  0.48496787
   0.11472258  0.65254804  0.98486200
   0.22558071  0.31307769  0.83295312
   0.22548256  0.67899789  0.33245955
   0.10776183  0.84281651  0.62754724
   0.10776099  0.15342903  0.12769878
   0.07282202  0.25636137  0.80306721
   0.07285113  0.73965065  0.30315111
   0.61516477  0.64671735  0.36729084
   0.61356050  0.34180427  0.86989955
   0.53686790  0.67616809  0.73868274
   0.53847837  0.30391240  0.21400464
   0.65024192  0.21957969  0.54455639
   0.65001392  0.77027737  0.04204286
   0.53784421  0.17562317  0.86636937
   0.53811617  0.80429077  0.38599824
   0.67981548  0.65515273  0.71257249
   0.68019617  0.33818563  0.21239048
   0.57395596  0.74752597  0.05220313
   0.57310824  0.25709204  0.54758379
   0.80327427  0.16350424  0.49825515
   0.80340614  0.83338725  0.99836047
   0.69320176  0.15950969  0.85856398
   0.69328461  0.83320815  0.35745729
   0.61020388  0.14968164  0.22852433
   0.60863775  0.84136200  0.72390325
   0.81811241  0.65518257  0.64537087
   0.81832346  0.34140334  0.14420515
   0.72621722  0.68761988  0.02405442
   0.72609172  0.30946065  0.52546246
   0.95761170  0.18016895  0.47710396
   0.95766760  0.81625751  0.97747426
   0.84681204  0.21703369  0.81147968
   0.84672436  0.77993399  0.31163692
   0.74944896  0.15187395  0.18192971
   0.74899509  0.84300341  0.67862881
   0.96008148  0.67953102  0.62488088
   0.96008937  0.31708338  0.12466763
   0.88151800  0.65273535  0.98500175
   0.88145640  0.34404843  0.48510273
   0.77078001  0.67893602  0.33276598
   0.77068070  0.31352427  0.83326033
   0.88854892  0.15357835  0.12784232
   0.88854984  0.84298877  0.62768705
   0.92342693  0.73961517  0.30327213
   0.92345403  0.25671142  0.80316253
   0.99813102  0.77143077  0.29472624
   0.99813220  0.22278979  0.79400982
   0.49813167  0.29827092  0.53041061
   0.49813492  0.77994490  0.06410343
Direct configuration=    10
   0.49812835  0.54241907  0.29727094
   0.38272548  0.34160717  0.86976762
   0.38112566  0.64665082  0.36719906
   0.45779824  0.30360781  0.21395073
   0.45942185  0.67616281  0.73863857
   0.34625737  0.77027667  0.04189339
   0.34603131  0.21931990  0.54437885
   0.45814498  0.80418534  0.38591317
   0.45840108  0.17552058  0.86634212
   0.31612335  0.33803532  0.21215089
   0.31649993  0.65498414  0.71236890
   0.42316018  0.25695820  0.54754574
   0.42231302  0.74728519  0.05212103
   0.19282623  0.83323964  0.99808686
   0.19295839  0.16331314  0.49797437
   0.30297500  0.83290572  0.35723006
   0.30306263  0.15945468  0.85833831
   0.38766047  0.84118169  0.72390219
   0.38610023  0.14968341  0.22848927
   0.17798798  0.34115588  0.14388267
   0.17820087  0.65508659  0.64505218
   0.27017357  0.30943746  0.52521140
   0.27004268  0.68730164  0.02377998
   0.03854126  0.81611371  0.97740870
   0.03860985  0.17997611  0.47708495
   0.14954096  0.77943589  0.31142370
   0.14945488  0.21720921  0.81126583
   0.24732306  0.84275132  0.67821646
   0.24687547  0.15179071  0.18153288
   0.03622714  0.31702676  0.12461105
   0.03624589  0.67925067  0.62477844
   0.11474720  0.34382917  0.48496673
   0.11468545  0.65263296  0.98486095
   0.22558142  0.31301356  0.83291232
   0.22548324  0.67907910  0.33242808
   0.10775780  0.84278386  0.62746011
   0.10775756  0.15346680  0.12761024
   0.07282412  0.25634555  0.80306928
   0.07285382  0.73968124  0.30315568
   0.61510633  0.64680585  0.36730311
   0.61351411  0.34177273  0.86986748
   0.53687146  0.67625422  0.73865977
   0.53848922  0.30381628  0.21402950
   0.65022157  0.21971268  0.54453933
   0.65000139  0.77021134  0.04204692
   0.53783335  0.17566034  0.86639697
   0.53810427  0.80430876  0.38593591
   0.67980810  0.65520504  0.71259716