unknown system                          
           1
    31.047125    0.000000    0.000000
     0.000000    5.110600    0.000000
     0.000000    0.000000   11.062900
   Ti
    80
Direct configuration=     1
   0.44525649  0.07900665  0.23432743
   0.39773578  0.58161888  0.30253389
   0.24999112  0.08654789  0.01625991
   0.34837622  0.07938729  0.37207700
   0.20092116  0.58266476  0.08581358
   0.29906350  0.58261932  0.44674467
   0.15161046  0.07944214  0.16038107
   0.10225436  0.58162273  0.22993646
   0.05473750  0.07907277  0.29812558
   0.55474348  0.92099337  0.48432744
   0.60226425  0.41838109  0.05253389
   0.75000885  0.91345213  0.26625991
   0.65162378  0.92061274  0.12207700
   0.79907885  0.41733521  0.33581359
   0.70093650  0.41738065  0.19674465
   0.84838954  0.92055788  0.41038107
   0.89774561  0.41837724  0.47993646
   0.94526251  0.92092725  0.04812558
   0.44525649  0.92099337  0.48432744
   0.39773578  0.41838109  0.05253389
   0.24999112  0.91345213  0.26625991
   0.34837622  0.92061274  0.12207700
   0.20092116  0.41733521  0.33581359
   0.29906350  0.41738065  0.19674465
   0.15161046  0.92055788  0.41038107
   0.10225436  0.41837724  0.47993646
   0.05473750  0.92092725  0.04812558
   0.55474348  0.07900665  0.23432743
   0.60226425  0.58161888  0.30253389
   0.75000885  0.08654789  0.01625991
   0.65162378  0.07938729  0.37207700
   0.79907885  0.58266476  0.08581358
   0.70093650  0.58261932  0.44674467
   0.84838954  0.07944214  0.16038107
   0.89774561  0.58162273  0.22993646
   0.94526251  0.07907277  0.29812558
   0.50000000  0.56944953  0.16119094
   0.50000000  0.43055044  0.41119094
   0.00000000  0.56951996  0.37118990
   0.00000000  0.43048001  0.12118990
   0.44525649  0.07900665  0.73432744
   0.39773578  0.58161888  0.80253389
   0.24999112  0.08654789  0.51625991
   0.34837622  0.07938729  0.87207697
   0.20092116  0.58266476  0.58581356
   0.29906350  0.58261932  0.94674467
   0.15161046  0.07944214  0.66038110
   0.10225436  0.58162273  0.72993646
   0.05473750  0.07907277  0.79812558
   0.55474348  0.92099337  0.98432744
   0.60226425  0.41838109  0.55253389
   0.75000885  0.91345213  0.76625991
   0.65162378  0.92061274  0.62207696
   0.79907885  0.41733521  0.83581356
   0.70093650  0.41738065  0.69674467
   0.84838954  0.92055788  0.91038110
   0.89774561  0.41837724  0.97993646
   0.94526251  0.92092725  0.54812558
   0.44525649  0.92099337  0.98432744
   0.39773578  0.41838109  0.55253389
   0.24999112  0.91345213  0.76625991
   0.34837622  0.92061274  0.62207696
   0.20092116  0.41733521  0.83581356
   0.29906350  0.41738065  0.69674467
   0.15161046  0.92055788  0.91038110
   0.10225436  0.41837724  0.97993646
   0.05473750  0.92092725  0.54812558
   0.55474348  0.07900665  0.73432744
   0.60226425  0.58161888  0.80253389
   0.75000885  0.08654789  0.51625991
   0.65162378  0.07938729  0.87207697
   0.79907885  0.58266476  0.58581356
   0.70093650  0.58261932  0.94674467
   0.84838954  0.07944214  0.66038110
   0.89774561  0.58162273  0.72993646
   0.94526251  0.07907277  0.79812558
   0.50000000  0.56944953  0.66119097
   0.50000000  0.43055044  0.91119097
   0.00000000  0.56951996  0.87118987
   0.00000000  0.43048001  0.62118987
Direct configuration=     2
   0.44531924  0.07984432  0.23443191
   0.39777237  0.58200148  0.30247831
   0.24999099  0.08544773  0.01626168
   0.34843003  0.07878492  0.37225694
   0.20094048  0.58170434  0.08590192
   0.29904436  0.58166040  0.44665222
   0.15155631  0.07883939  0.16020410
   0.10221796  0.58200912  0.22999194
   0.05467487  0.07990706  0.29801948
   0.55468072  0.92015570  0.48443191
   0.60222766  0.41799849  0.05247831
   0.75000898  0.91455229  0.26626168
   0.65156997  0.92121510  0.12225694
   0.79905954  0.41829563  0.33590192
   0.70095564  0.41833957  0.19665220
   0.84844369  0.92116063  0.41020410
   0.89778201  0.41799085  0.47999194
   0.94532514  0.92009296  0.04801948
   0.44531924  0.92015570  0.48443191
   0.39777237  0.41799849  0.05247831
   0.24999099  0.91455229  0.26626168
   0.34843003  0.92121510  0.12225694
   0.20094048  0.41829563  0.33590192
   0.29904436  0.41833957  0.19665220
   0.15155631  0.92116063  0.41020410
   0.10221796  0.41799085  0.47999194
   0.05467487  0.92009296  0.04801948
   0.55468072  0.07984432  0.23443191
   0.60222766  0.58200148  0.30247831
   0.75000898  0.08544773  0.01626168
   0.65156997  0.07878492  0.37225694
   0.79905954  0.58170434  0.08590192
   0.70095564  0.58166040  0.44665222
   0.84844369  0.07883939  0.16020410
   0.89778201  0.58200912  0.22999194
   0.94532514  0.07990706  0.29801948
   0.50000000  0.56912663  0.16064979
   0.50000000  0.43087334  0.41064979
   0.00000000  0.56919873  0.37173326
   0.00000000  0.43080124  0.12173326
   0.44531924  0.07984432  0.73443191
   0.39777237  0.58200148  0.80247830
   0.24999099  0.08544773  0.51626168
   0.34843003  0.07878492  0.87225691
   0.20094048  0.58170434  0.58590190
   0.29904436  0.58166040  0.94665222
   0.15155631  0.07883939  0.66020413
   0.10221796  0.58200912  0.72999194
   0.05467487  0.07990706  0.79801948
   0.55468072  0.92015570  0.98443191
   0.60222766  0.41799849  0.55247830
   0.75000898  0.91455229  0.76626168
   0.65156997  0.92121510  0.62225691
   0.79905954  0.41829563  0.83590190
   0.70095564  0.41833957  0.69665222
   0.84844369  0.92116063  0.91020413
   0.89778201  0.41799085  0.97999194
   0.94532514  0.92009296  0.54801948
   0.44531924  0.92015570  0.98443191
   0.39777237  0.41799849  0.55247830
   0.24999099  0.91455229  0.76626168
   0.34843003  0.92121510  0.62225691
   0.20094048  0.41829563  0.83590190
   0.29904436  0.41833957  0.69665222
   0.15155631  0.92116063  0.91020413
   0.10221796  0.41799085  0.97999194
   0.05467487  0.92009296  0.54801948
   0.55468072  0.07984432  0.73443191
   0.60222766  0.58200148  0.80247830
   0.75000898  0.08544773  0.51626168
   0.65156997  0.07878492  0.87225691
   0.79905954  0.58170434  0.58590190
   0.70095564  0.58166040  0.94665222
   0.84844369  0.07883939  0.66020413
   0.89778201  0.58200912  0.72999194
   0.94532514  0.07990706  0.79801948
   0.50000000  0.56912663  0.66064982
   0.50000000  0.43087334  0.91064982
   0.00000000  0.56919873  0.87173323
   0.00000000  0.43080124  0.62173323
Direct configuration=     3
   0.44550751  0.08235735  0.23474532
   0.39788217  0.58314930  0.30231156
   0.24999062  0.08214723  0.01626700
   0.34859146  0.07697781  0.37279677
   0.20099842  0.57882309  0.08616693
   0.29898696  0.57878363  0.44637486
   0.15139385  0.07703115  0.15967318
   0.10210877  0.58316830  0.23015835
   0.05448697  0.08240994  0.29770120
   0.55449246  0.91764267  0.48474532
   0.60211786  0.41685067  0.05231156
   0.75000935  0.91785280  0.26626700
   0.65140854  0.92302221  0.12279677
   0.79900160  0.42117688  0.33616694
   0.70101304  0.42121634  0.19637484
   0.84860615  0.92296887  0.40967318
   0.89789121  0.41683167  0.48015835
   0.94551304  0.91759008  0.04770120
   0.44550751  0.91764267  0.48474532
   0.39788217  0.41685067  0.05231156
   0.24999062  0.91785280  0.26626700
   0.34859146  0.92302221  0.12279677
   0.20099842  0.42117688  0.33616694
   0.29898696  0.42121634  0.19637484
   0.15139385  0.92296887  0.40967318
   0.10210877  0.41683167  0.48015835
   0.05448697  0.91759008  0.04770120
   0.55449246  0.08235735  0.23474532
   0.60211786  0.58314930  0.30231156
   0.75000935  0.08214723  0.01626700
   0.65140854  0.07697781  0.37279677
   0.79900160  0.57882309  0.08616693
   0.70101304  0.57878363  0.44637486
   0.84860615  0.07703115  0.15967318
   0.89789121  0.58316830  0.23015835
   0.94551304  0.08240994  0.29770120
   0.50000000  0.56815793  0.15902634
   0.50000000  0.43184204  0.40902634
   0.00000000  0.56823504  0.37336335
   0.00000000  0.43176493  0.12336334
   0.44550751  0.08235735  0.73474532
   0.39788217  0.58314930  0.80231156
   0.24999062  0.08214723  0.51626700
   0.34859146  0.07697781  0.87279674
   0.20099842  0.57882309  0.58616691
   0.29898696  0.57878363  0.94637486
   0.15139385  0.07703115  0.65967321
   0.10210877  0.58316830  0.73015835
   0.05448697  0.08240994  0.79770120
   0.55449246  0.91764267  0.98474532
   0.60211786  0.41685067  0.55231156
   0.75000935  0.91785280  0.76626700
   0.65140854  0.92302221  0.62279674
   0.79900160  0.42117688  0.83616691
   0.70101304  0.42121634  0.69637486
   0.84860615  0.92296887  0.90967321
   0.89789121  0.41683167  0.98015835
   0.94551304  0.91759008  0.54770120
   0.44550751  0.91764267  0.98474532
   0.39788217  0.41685067  0.55231156
   0.24999062  0.91785280  0.76626700
   0.34859146  0.92302221  0.62279674
   0.20099842  0.42117688  0.83616691
   0.29898696  0.42121634  0.69637486
   0.15139385  0.92296887  0.90967321
   0.10210877  0.41683167  0.98015835
   0.05448697  0.91759008  0.54770120
   0.55449246  0.08235735  0.73474532
   0.60211786  0.58314930  0.80231156
   0.75000935  0.08214723  0.51626700
   0.65140854  0.07697781  0.87279674
   0.79900160  0.57882309  0.58616691
   0.70101304  0.57878363  0.94637486
   0.84860615  0.07703115  0.65967321
   0.89789121  0.58316830  0.73015835
   0.94551304  0.08240994  0.79770120
   0.50000000  0.56815793  0.65902637
   0.50000000  0.43184204  0.90902637
   0.00000000  0.56823504  0.87336332
   0.00000000  0.43176493  0.62336332
Direct configuration=     4
   0.44588403  0.08738340  0.23537216
   0.39810176  0.58544494  0.30197807
   0.24998988  0.07554623  0.01627763
   0.34891433  0.07336361  0.37387642
   0.20111431  0.57306058  0.08669696
   0.29887215  0.57303009  0.44582015
   0.15106893  0.07341467  0.15861134
   0.10189037  0.58548666  0.23049119
   0.05411117  0.08741571  0.29706462
   0.55411594  0.91261662  0.48537216
   0.60189827  0.41455503  0.05197808
   0.75001009  0.92445380  0.26627763
   0.65108567  0.92663641  0.12387642
   0.79888571  0.42693939  0.33669696
   0.70112785  0.42696988  0.19582013
   0.84893107  0.92658535  0.40861134
   0.89810960  0.41451331  0.48049119
   0.94588884  0.91258431  0.04706463
   0.44588403  0.91261662  0.48537216
   0.39810176  0.41455503  0.05197808
   0.24998988  0.92445380  0.26627763
   0.34891433  0.92663641  0.12387642
   0.20111431  0.42693939  0.33669696
   0.29887215  0.42696988  0.19582013
   0.15106893  0.92658535  0.40861134
   0.10189037  0.41451331  0.48049119
   0.05411117  0.91258431  0.04706463
   0.55411594  0.08738340  0.23537216
   0.60189827  0.58544494  0.30197807
   0.75001009  0.07554623  0.01627763
   0.65108567  0.07336361  0.37387642
   0.79888571  0.57306058  0.08669696
   0.70112785  0.57303009  0.44582015
   0.84893107  0.07341467  0.15861134
   0.89810960  0.58548666  0.23049119
   0.94588884  0.08741571  0.29706462
   0.50000000  0.56622053  0.15577944
   0.50000000  0.43377944  0.40577944
   0.00000000  0.56630766  0.37662351
   0.00000000  0.43369231  0.12662351
   0.44588403  0.08738340  0.73537216
   0.39810176  0.58544494  0.80197807
   0.24998988  0.07554623  0.51627763
   0.34891433  0.07336361  0.87387639
   0.20111431  0.57306058  0.58669693
   0.29887215  0.57303009  0.94582015
   0.15106893  0.07341467  0.65861137
   0.10189037  0.58548666  0.73049119
   0.05411117  0.08741571  0.79706462
   0.55411594  0.91261662  0.98537216
   0.60189827  0.41455503  0.55197807
   0.75001009  0.92445380  0.76627763
   0.65108567  0.92663641  0.62387639
   0.79888571  0.42693939  0.83669693
   0.70112785  0.42696988  0.69582014
   0.84893107  0.92658535  0.90861137
   0.89810960  0.41451331  0.98049119
   0.94588884  0.91258431  0.54706462
   0.44588403  0.91261662  0.98537216
   0.39810176  0.41455503  0.55197807
   0.24998988  0.92445380  0.76627763
   0.34891433  0.92663641  0.62387639
   0.20111431  0.42693939  0.83669693
   0.29887215  0.42696988  0.69582014
   0.15106893  0.92658535  0.90861137
   0.10189037  0.41451331  0.98049119
   0.05411117  0.91258431  0.54706462
   0.55411594  0.08738340  0.73537216
   0.60189827  0.58544494  0.80197807
   0.75001009  0.07554623  0.51627763
   0.65108567  0.07336361  0.87387639
   0.79888571  0.57306058  0.58669693
   0.70112785  0.57303009  0.94582015
   0.84893107  0.07341467  0.65861137
   0.89810960  0.58548666  0.73049119
   0.94588884  0.08741571  0.79706462
   0.50000000  0.56622053  0.65577947
   0.50000000  0.43377944  0.90577947
   0.00000000  0.56630766  0.87662348
   0.00000000  0.43369231  0.62662348
Direct configuration=     5
   0.44568812  0.08476822  0.23504600
   0.39798750  0.58425046  0.30215160
   0.24999027  0.07898089  0.01627210
   0.34874634  0.07524417  0.37331465
   0.20105401  0.57605896  0.08642117
   0.29893189  0.57602380  0.44610878
   0.15123800  0.07529642  0.15916384
   0.10200401  0.58428036  0.23031801
   0.05430671  0.08481108  0.29739585
   0.55431185  0.91523180  0.48504600
   0.60201253  0.41574951  0.05215160
   0.75000970  0.92101913  0.26627210
   0.65125366  0.92475585  0.12331465
   0.79894601  0.42394101  0.33642118
   0.70106811  0.42397617  0.19610876
   0.84876200  0.92470360  0.40916384
   0.89799597  0.41571961  0.48031801
   0.94569331  0.91518894  0.04739585
   0.44568812  0.91523180  0.48504600
   0.39798750  0.41574951  0.05215160
   0.24999027  0.92101913  0.26627210
   0.34874634  0.92475585  0.12331465
   0.20105401  0.42394101  0.33642118
   0.29893189  0.42397617  0.19610876
   0.15123800  0.92470360  0.40916384
   0.10200401  0.41571961  0.48031801
   0.05430671  0.91518894  0.04739585
   0.55431185  0.08476822  0.23504600
   0.60201253  0.58425046  0.30215160
   0.75000970  0.07898089  0.01627210
   0.65125366  0.07524417  0.37331465
   0.79894601  0.57605896  0.08642117
   0.70106811  0.57602380  0.44610878
   0.84876200  0.07529642  0.15916384
   0.89799597  0.58428036  0.23031801
   0.94569331  0.08481108  0.29739585
   0.50000000  0.56722861  0.15746888
   0.50000000  0.43277137  0.40746888
   0.00000000  0.56731052  0.37492717
   0.00000000  0.43268945  0.12492716
   0.44568812  0.08476822  0.73504600
   0.39798750  0.58425046  0.80215159
   0.24999027  0.07898089  0.51627210
   0.34874634  0.07524417  0.87331462
   0.20105401  0.57605896  0.58642115
   0.29893189  0.57602380  0.94610878
   0.15123800  0.07529642  0.65916387
   0.10200401  0.58428036  0.73031801
   0.05430671  0.08481108  0.79739585
   0.55431185  0.91523180  0.98504600
   0.60201253  0.41574951  0.55215159
   0.75000970  0.92101913  0.76627210
   0.65125366  0.92475585  0.62331462
   0.79894601  0.42394101  0.83642115
   0.70106811  0.42397617  0.69610878
   0.84876200  0.92470360  0.90916387
   0.89799597  0.41571961  0.98031801
   0.94569331  0.91518894  0.54739585
   0.44568812  0.91523180  0.98504600
   0.39798750  0.41574951  0.55215159
   0.24999027  0.92101913  0.76627210
   0.34874634  0.92475585  0.62331462
   0.20105401  0.42394101  0.83642115
   0.29893189  0.42397617  0.69610878
   0.15123800  0.92470360  0.90916387
   0.10200401  0.41571961  0.98031801
   0.05430671  0.91518894  0.54739585
   0.55431185  0.08476822  0.73504600
   0.60201253  0.58425046  0.80215159
   0.75000970  0.07898089  0.51627210
   0.65125366  0.07524417  0.87331462
   0.79894601  0.57605896  0.58642115
   0.70106811  0.57602380  0.94610878
   0.84876200  0.07529642  0.65916387
   0.89799597  0.58428036  0.73031801
   0.94569331  0.08481108  0.79739585
   0.50000000  0.56722861  0.65746891
   0.50000000  0.43277137  0.90746891
   0.00000000  0.56731052  0.87492714
   0.00000000  0.43268945  0.62492714
Direct configuration=     6
   0.44586649  0.08433918  0.23516516
   0.39804054  0.58390644  0.30164724
   0.24999027  0.07812723  0.01627218
   0.34885503  0.07516309  0.37314786
   0.20114280  0.57562747  0.08650313
   0.29884315  0.57559052  0.44602508
   0.15112992  0.07521247  0.15933302
   0.10195189  0.58393642  0.23082165
   0.05412828  0.08438516  0.29727499
   0.55413348  0.91566084  0.48516516
   0.60195949  0.41609353  0.05164724
   0.75000970  0.92187280  0.26627218
   0.65114496  0.92483693  0.12314786
   0.79885722  0.42437250  0.33650313
   0.70115685  0.42440945  0.19602506
   0.84887008  0.92478755  0.40933302
   0.89804809  0.41606356  0.48082165
   0.94587174  0.91561487  0.04727499
   0.44586649  0.91566084  0.48516516
   0.39804054  0.41609353  0.05164724
   0.24999027  0.92187280  0.26627218
   0.34885503  0.92483693  0.12314786
   0.20114280  0.42437250  0.33650313
   0.29884315  0.42440945  0.19602506
   0.15112992  0.92478755  0.40933302
   0.10195189  0.41606356  0.48082165
   0.05412828  0.91561487  0.04727499
   0.55413348  0.08433918  0.23516516
   0.60195949  0.58390644  0.30164724
   0.75000970  0.07812723  0.01627218
   0.65114496  0.07516309  0.37314786
   0.79885722  0.57562747  0.08650313
   0.70115685  0.57559052  0.44602508
   0.84887008  0.07521247  0.15933302
   0.89804809  0.58393642  0.23082165
   0.94587174  0.08438516  0.29727499
   0.50000000  0.56714796  0.15711760
   0.50000000  0.43285201  0.40711760
   0.00000000  0.56721716  0.37528181
   0.00000000  0.43278281  0.12528180
   0.44586649  0.08433918  0.73516516
   0.39804054  0.58390644  0.80164724
   0.24999027  0.07812723  0.51627218
   0.34885503  0.07516309  0.87314783
   0.20114280  0.57562747  0.58650310
   0.29884315  0.57559052  0.94602508
   0.15112992  0.07521247  0.65933305
   0.10195189  0.58393642  0.73082165
   0.05412828  0.08438516  0.79727499
   0.55413348  0.91566084  0.98516516
   0.60195949  0.41609353  0.55164724
   0.75000970  0.92187280  0.76627218
   0.65114496  0.92483693  0.62314783
   0.79885722  0.42437250  0.83650310
   0.70115685  0.42440945  0.69602508
   0.84887008  0.92478755  0.90933305
   0.89804809  0.41606356  0.98082165
   0.94587174  0.91561487  0.54727499
   0.44586649  0.91566084  0.98516516
   0.39804054  0.41609353  0.55164724
   0.24999027  0.92187280  0.76627218
   0.34885503  0.92483693  0.62314783
   0.20114280  0.42437250  0.83650310
   0.29884315  0.42440945  0.69602508
   0.15112992  0.92478755  0.90933305
   0.10195189  0.41606356  0.98082165
   0.05412828  0.91561487  0.54727499
   0.55413348  0.08433918  0.73516516
   0.60195949  0.58390644  0.80164724
   0.75000970  0.07812723  0.51627218
   0.65114496  0.07516309  0.87314783
   0.79885722  0.57562747  0.58650310
   0.70115685  0.57559052  0.94602508
   0.84887008  0.07521247  0.65933305
   0.89804809  0.58393642  0.73082165
   0.94587174  0.08438516  0.79727499
   0.50000000  0.56714796  0.65711763
   0.50000000  0.43285201  0.90711763
   0.00000000  0.56721716  0.87528178
   0.00000000  0.43278281  0.62528178
Direct configuration=     7
   0.44640160  0.08305206  0.23552262
   0.39819968  0.58287439  0.30013418
   0.24999027  0.07556622  0.01627243
   0.34918113  0.07491984  0.37264749
   0.20140916  0.57433299  0.08674899
   0.29857693  0.57429067  0.44577398
   0.15080570  0.07496061  0.15984058
   0.10179552  0.58290458  0.23233257
   0.05359298  0.08310738  0.29691243
   0.55359837  0.91694796  0.48552262
   0.60180035  0.41712558  0.05013418
   0.75000970  0.92443380  0.26627243
   0.65081887  0.92508018  0.12264749
   0.79859086  0.42566698  0.33674900
   0.70142307  0.42570930  0.19577396
   0.84919430  0.92503941  0.40984058
   0.89820445  0.41709539  0.48233257
   0.94640703  0.91689264  0.04691243
   0.44640160  0.91694796  0.48552262
   0.39819968  0.41712558  0.05013418
   0.24999027  0.92443380  0.26627243
   0.34918113  0.92508018  0.12264749
   0.20140916  0.42566698  0.33674900
   0.29857693  0.42570930  0.19577396
   0.15080570  0.92503941  0.40984058
   0.10179552  0.41709539  0.48233257
   0.05359298  0.91689264  0.04691243
   0.55359837  0.08305206  0.23552262
   0.60180035  0.58287439  0.30013418
   0.75000970  0.07556622  0.01627243
   0.65081887  0.07491984  0.37264749
   0.79859086  0.57433299  0.08674899
   0.70142307  0.57429067  0.44577398
   0.84919430  0.07496061  0.15984058
   0.89820445  0.58290458  0.23233257
   0.94640703  0.08310738  0.29691243
   0.50000000  0.56690601  0.15606376
   0.50000000  0.43309396  0.40606376
  -0.00000000  0.56693709  0.37634574
  -0.00000000  0.43306288  0.12634573
   0.44640160  0.08305206  0.73552262
   0.39819968  0.58287439  0.80013418
   0.24999027  0.07556622  0.51627243
   0.34918113  0.07491984  0.87264746
   0.20140916  0.57433299  0.58674897
   0.29857693  0.57429067  0.94577398
   0.15080570  0.07496061  0.65984061
   0.10179552  0.58290458  0.73233257
   0.05359298  0.08310738  0.79691243
   0.55359837  0.91694796  0.98552262
   0.60180035  0.41712558  0.55013418
   0.75000970  0.92443380  0.76627243
   0.65081887  0.92508018  0.62264746
   0.79859086  0.42566698  0.83674897
   0.70142307  0.42570930  0.69577398
   0.84919430  0.92503941  0.90984061
   0.89820445  0.41709539  0.98233257
   0.94640703  0.91689264  0.54691243
   0.44640160  0.91694796  0.98552262
   0.39819968  0.41712558  0.55013418
   0.24999027  0.92443380  0.76627243
   0.34918113  0.92508018  0.62264746
   0.20140916  0.42566698  0.83674897
   0.29857693  0.42570930  0.69577398
   0.15080570  0.92503941  0.90984061
   0.10179552  0.41709539  0.98233257
   0.05359298  0.91689264  0.54691243
   0.55359837  0.08305206  0.73552262
   0.60180035  0.58287439  0.80013418
   0.75000970  0.07556622  0.51627243
   0.65081887  0.07491984  0.87264746
   0.79859086  0.57433299  0.58674897
   0.70142307  0.57429067  0.94577398
   0.84919430  0.07496061  0.65984061
   0.89820445  0.58290458  0.73233257
   0.94640703  0.08310738  0.79691243
   0.50000000  0.56690601  0.65606379
   0.50000000  0.43309396  0.90606379
  -0.00000000  0.56693709  0.87634571
  -0.00000000  0.43306288  0.62634571
Direct configuration=     8
   0.44747183  0.08047783  0.23623756
   0.39851795  0.58081028  0.29710805
   0.24999026  0.07044422  0.01627292
   0.34983332  0.07443335  0.37164675
   0.20194188  0.57174404  0.08724073
   0.29804450  0.57169096  0.44527178
   0.15015725  0.07445691  0.16085568
   0.10148279  0.58084091  0.23535442
   0.05252239  0.08055183  0.29618729
   0.55252814  0.91952219  0.48623756
   0.60148208  0.41918969  0.04710806
   0.75000971  0.92955580  0.26627292
   0.65016668  0.92556667  0.12164675
   0.79805814  0.42825593  0.33724073
   0.70195550  0.42830901  0.19527176
   0.84984275  0.92554311  0.41085568
   0.89851718  0.41915906  0.48535442
   0.94747762  0.91944820  0.04618729
   0.44747183  0.91952219  0.48623756
   0.39851795  0.41918969  0.04710806
   0.24999026  0.92955580  0.26627292
   0.34983332  0.92556667  0.12164675
   0.20194188  0.42825593  0.33724073
   0.29804450  0.42830901  0.19527176
   0.15015725  0.92554311  0.41085568
   0.10148279  0.41915906  0.48535442
   0.05252239  0.91944820  0.04618729
   0.55252814  0.08047783  0.23623756
   0.60148208  0.58081028  0.29710805
   0.75000971  0.07044422  0.01627292
   0.65016668  0.07443335  0.37164675
   0.79805814  0.57174404  0.08724073
   0.70195550  0.57169096  0.44527178
   0.84984275  0.07445691  0.16085568
   0.89851718  0.58084091  0.23535442
   0.94747762  0.08055183  0.29618729
   0.50000000  0.56642213  0.15395607
   0.50000000  0.43357784  0.40395607
  -0.00000000  0.56637693  0.37847359
  -0.00000000  0.43362304  0.12847358
   0.44747183  0.08047783  0.73623756
   0.39851795  0.58081028  0.79710805
   0.24999026  0.07044422  0.51627292
   0.34983332  0.07443335  0.87164672
   0.20194188  0.57174404  0.58724070
   0.29804450  0.57169096  0.94527178
   0.15015725  0.07445691  0.66085571
   0.10148279  0.58084091  0.73535442
   0.05252239  0.08055183  0.79618729
   0.55252814  0.91952219  0.98623756
   0.60148208  0.41918969  0.54710805
   0.75000971  0.92955580  0.76627292
   0.65016668  0.92556667  0.62164672
   0.79805814  0.42825593  0.83724070
   0.70195550  0.42830901  0.69527178
   0.84984275  0.92554311  0.91085571
   0.89851718  0.41915906  0.98535442
   0.94747762  0.91944820  0.54618729
   0.44747183  0.91952219  0.98623756
   0.39851795  0.41918969  0.54710805
   0.24999026  0.92955580  0.76627292
   0.34983332  0.92556667  0.62164672
   0.20194188  0.42825593  0.83724070
   0.29804450  0.42830901  0.69527178
   0.15015725  0.92554311  0.91085571
   0.10148279  0.41915906  0.98535442
   0.05252239  0.91944820  0.54618729
   0.55252814  0.08047783  0.73623756
   0.60148208  0.58081028  0.79710805
   0.75000971  0.07044422  0.51627292
   0.65016668  0.07443335  0.87164672
   0.79805814  0.57174404  0.58724070
   0.70195550  0.57169096  0.94527178
   0.84984275  0.07445691  0.66085571
   0.89851718  0.58084091  0.73535442
   0.94747762  0.08055183  0.79618729
   0.50000000  0.56642213  0.65395610
   0.50000000  0.43357784  0.90395610
  -0.00000000  0.56637693  0.87847356
  -0.00000000  0.43362304  0.62847356
Direct configuration=     9
   0.44681265  0.08206335  0.23579722
   0.39832192  0.58208161  0.29897190
   0.24999026  0.07359897  0.01627262
   0.34943163  0.07473299  0.37226313
   0.20161376  0.57333863  0.08693786
   0.29837244  0.57329217  0.44558109
   0.15055664  0.07476715  0.16023046
   0.10167541  0.58211197  0.23349320
   0.05318179  0.08212584  0.29663392
   0.55318732  0.91793667  0.48579722
   0.60167811  0.41791836  0.04897191
   0.75000971  0.92640106  0.26627262
   0.65056837  0.92526703  0.12226313
   0.79838625  0.42666134  0.33693786
   0.70162756  0.42670780  0.19558108
   0.84944336  0.92523287  0.41023046
   0.89832457  0.41788800  0.48349320
   0.94681822  0.91787418  0.04663392
   0.44681265  0.91793667  0.48579722
   0.39832192  0.41791836  0.04897191
   0.24999026  0.92640106  0.26627262
   0.34943163  0.92526703  0.12226313
   0.20161376  0.42666134  0.33693786
   0.29837244  0.42670780  0.19558108
   0.15055664  0.92523287  0.41023046
   0.10167541  0.41788800  0.48349320
   0.05318179  0.91787418  0.04663392
   0.55318732  0.08206335  0.23579722
   0.60167811  0.58208161  0.29897190
   0.75000971  0.07359897  0.01627262
   0.65056837  0.07473299  0.37226313
   0.79838625  0.57333863  0.08693786
   0.70162756  0.57329217  0.44558109
   0.84944336  0.07476715  0.16023046
   0.89832457  0.58211197  0.23349320
   0.94681822  0.08212584  0.29663392
   0.50000000  0.56672016  0.15525424
   0.50000000  0.43327981  0.40525424
  -0.00000000  0.56672194  0.37716300
  -0.00000000  0.43327803  0.12716299
   0.44681265  0.08206335  0.73579722
   0.39832192  0.58208161  0.79897190
   0.24999026  0.07359897  0.51627262
   0.34943163  0.07473299  0.87226310
   0.20161376  0.57333863  0.58693784
   0.29837244  0.57329217  0.94558109
   0.15055664  0.07476715  0.66023049
   0.10167541  0.58211197  0.73349320
   0.05318179  0.08212584  0.79663392
   0.55318732  0.91793667  0.98579722
   0.60167811  0.41791836  0.54897190
   0.75000971  0.92640106  0.76627262
   0.65056837  0.92526703  0.62226310
   0.79838625  0.42666134  0.83693784
   0.70162756  0.42670780  0.69558109
   0.84944336  0.92523287  0.91023049
   0.89832457  0.41788800  0.98349320
   0.94681822  0.91787418  0.54663392
   0.44681265  0.91793667  0.98579722
   0.39832192  0.41791836  0.54897190
   0.24999026  0.92640106  0.76627262
   0.34943163  0.92526703  0.62226310
   0.20161376  0.42666134  0.83693784
   0.29837244  0.42670780  0.69558109
   0.15055664  0.92523287  0.91023049
   0.10167541  0.41788800  0.98349320
   0.05318179  0.91787418  0.54663392
   0.55318732  0.08206335  0.73579722
   0.60167811  0.58208161  0.79897190
   0.75000971  0.07359897  0.51627262
   0.65056837  0.07473299  0.87226310
   0.79838625  0.57333863  0.58693784
   0.70162756  0.57329217  0.94558109
   0.84944336  0.07476715  0.66023049
   0.89832457  0.58211197  0.73349320
   0.94681822  0.08212584  0.79663392
   0.50000000  0.56672016  0.65525427
   0.50000000  0.43327981  0.90525427
  -0.00000000  0.56672194  0.87716297
  -0.00000000  0.43327803  0.62716297
Direct configuration=    10
   0.44705230  0.08170969  0.23553543
   0.39840207  0.58232996  0.29834505
   0.24999034  0.07435997  0.01627299
   0.34962034  0.07413513  0.37187961
   0.20172128  0.57294040  0.08739601
   0.29826439  0.57289796  0.44512204
   0.15036965  0.07417068  0.16061340
   0.10159575  0.58236449  0.23412072
   0.05294249  0.08175954  0.29689456
   0.55294767  0.91829033  0.48553543
   0.60159796  0.41767001  0.04834505
   0.75000963  0.92564005  0.26627299
   0.65037966  0.92586489  0.12187961
   0.79827873  0.42705957  0.33739601
   0.70173561  0.42710201  0.19512203
   0.84963035  0.92582934  0.41061340
   0.89840423  0.41763548  0.48412072
   0.94705753  0.91824048  0.04689456
   0.44705230  0.91829033  0.48553543
   0.39840207  0.41767001  0.04834505
   0.24999034  0.92564005  0.26627299
   0.34962034  0.92586489  0.12187961
   0.20172128  0.42705957  0.33739601
   0.29826439  0.42710201  0.19512203
   0.15036965  0.92582934  0.41061340
   0.10159575  0.41763548  0.48412072
   0.05294249  0.91824048  0.04689456
   0.55294767  0.08170969  0.23553543
   0.60159796  0.58232996  0.29834505
   0.75000963  0.07435997  0.01627299
   0.65037966  0.07413513  0.37187961
   0.79827873  0.57294040  0.08739601
   0.70173561  0.57289796  0.44512204
   0.84963035  0.07417068  0.16061340
   0.89840423  0.58236449  0.23412072
   0.94705753  0.08175954  0.29689456
   0.50000000  0.56568446  0.15484612
   0.50000000  0.43431551  0.40484612
  -0.00000000  0.56568636  0.37757429
  -0.00000000  0.43431361  0.12757428
   0.44705230  0.08170969  0.73553543
   0.39840207  0.58232996  0.79834505
   0.24999034  0.07435997  0.51627299
   0.34962034  0.07413513  0.87187958
   0.20172128  0.57294040  0.58739598
   0.29826439  0.57289796  0.94512204
   0.15036965  0.07417068  0.66061343
   0.10159575  0.58236449  0.73412072
   0.05294249  0.08175954  0.79689456
   0.55294767  0.91829033  0.98553543
   0.60159796  0.41767001  0.54834505
   0.75000963  0.92564005  0.76627299
   0.65037966  0.92586489  0.62187958
   0.79827873  0.42705957  0.83739598
   0.70173561  0.42710201  0.69512204
   0.84963035  0.92582934  0.91061343
   0.89840423  0.41763548  0.98412072