 running on   40 total cores
 distrk:  each k-point on   40 cores,    1 groups
 distr:  one band on    1 cores,   40 groups
 using from now: INCAR     
 vasp.6.1.1 19Jun20 (build Jan 13 2022 18:23:11) complex                        
  
 POSCAR found type information on POSCAR O Ti
 POSCAR found :  2 types and      81 ions
 scaLAPACK will be used
 -----------------------------------------------------------------------------
|                                                                             |
|           W    W    AA    RRRRR   N    N  II  N    N   GGGG   !!!           |
|           W    W   A  A   R    R  NN   N  II  NN   N  G    G  !!!           |
|           W    W  A    A  R    R  N N  N  II  N N  N  G       !!!           |
|           W WW W  AAAAAA  RRRRR   N  N N  II  N  N N  G  GGG   !            |
|           WW  WW  A    A  R   R   N   NN  II  N   NN  G    G                |
|           W    W  A    A  R    R  N    N  II  N    N   GGGG   !!!           |
|                                                                             |
|     For optimal performance we recommend to set                             |
|       NCORE = 4 - approx SQRT(number of cores).                             |
|     NCORE specifies how many cores store one orbital (NPAR=cpu/NCORE).      |
|     This setting can greatly improve the performance of VASP for DFT.       |
|     The default, NCORE=1 might be grossly inefficient on modern             |
|     multi-core architectures or massively parallel machines. Do your        |
|     own testing!!!!                                                         |
|     Unfortunately you need to use the default for GW and RPA                |
|     calculations (for HF NCORE is supported but not extensively tested      |
|     yet).                                                                   |
|                                                                             |
 -----------------------------------------------------------------------------

 -----------------------------------------------------------------------------
|                                                                             |
|               ----> ADVICE to this user running VASP <----                  |
|                                                                             |
|     You have a (more or less) 'large supercell' and for larger cells it     |
|     might be more efficient to use real-space projection operators.         |
|     Therefore, try LREAL= Auto in the INCAR file.                           |
|     Mind: For very accurate calculation, you might also keep the            |
|     reciprocal projection scheme (i.e. LREAL=.FALSE.).                      |
|                                                                             |
 -----------------------------------------------------------------------------

 LDA part: xc-table for Pade appr. of Perdew
 POSCAR, INCAR and KPOINTS ok, starting setup
 FFT: planning ...
 WAVECAR not read
 WARNING: random wavefunctions but no delay for mixing, default for NELMDL
 entering main loop
       N       E                     dE             d eps       ncg     rms          rms(c)
DAV:   1     0.133959318852E+05    0.13396E+05   -0.40811E+05  7200   0.174E+03
DAV:   2     0.136190780078E+04   -0.12034E+05   -0.11759E+05  7200   0.585E+02
DAV:   3    -0.387965109491E+03   -0.17499E+04   -0.16540E+04 10800   0.196E+02
DAV:   4    -0.686871217507E+03   -0.29891E+03   -0.29397E+03 10600   0.687E+01
DAV:   5    -0.713784963498E+03   -0.26914E+02   -0.26789E+02 11360   0.172E+01    0.802E+01
DAV:   6    -0.630920250027E+03    0.82865E+02   -0.33554E+02  9880   0.403E+01    0.262E+01
DAV:   7    -0.806725731051E+03   -0.17581E+03   -0.34706E+02 10680   0.499E+01    0.909E+01
DAV:   8    -0.761460235418E+03    0.45265E+02   -0.41326E+02 10960   0.330E+01    0.874E+01
DAV:   9    -0.628893533854E+03    0.13257E+03   -0.23880E+02 11160   0.249E+01    0.202E+01
DAV:  10    -0.656254725665E+03   -0.27361E+02   -0.11003E+02 10840   0.241E+01    0.411E+01
DAV:  11    -0.631413622434E+03    0.24841E+02   -0.84773E+01 10880   0.172E+01    0.178E+01
DAV:  12    -0.629908800028E+03    0.15048E+01   -0.25164E+01 10160   0.116E+01    0.112E+01
DAV:  13    -0.629188391102E+03    0.72041E+00   -0.14793E+01 10000   0.104E+01    0.703E+00
DAV:  14    -0.629142299233E+03    0.46092E-01   -0.72489E+00 10240   0.835E+00    0.644E+00
DAV:  15    -0.628559087290E+03    0.58321E+00   -0.38125E+00 10080   0.574E+00    0.283E+00
DAV:  16    -0.628605861160E+03   -0.46774E-01   -0.13971E+00  9880   0.398E+00    0.291E+00
DAV:  17    -0.628511072995E+03    0.94788E-01   -0.68245E-01  9800   0.280E+00    0.149E+00
DAV:  18    -0.628500033984E+03    0.11039E-01   -0.24180E-01 10240   0.167E+00    0.102E+00
DAV:  19    -0.628495531439E+03    0.45025E-02   -0.96133E-02 10480   0.108E+00    0.796E-01
DAV:  20    -0.628488616199E+03    0.69152E-02   -0.48115E-02  9360   0.816E-01    0.433E-01
DAV:  21    -0.628487841026E+03    0.77517E-03   -0.19655E-02 10400   0.513E-01    0.379E-01
DAV:  22    -0.628485608914E+03    0.22321E-02   -0.94225E-03  9920   0.366E-01    0.150E-01
DAV:  23    -0.628485685586E+03   -0.76671E-04   -0.30548E-03 11240   0.172E-01    0.125E-01
DAV:  24    -0.628485608696E+03    0.76890E-04   -0.13645E-03  9960   0.134E-01    0.713E-02
DAV:  25    -0.628485608287E+03    0.40946E-06   -0.58746E-04  9640   0.882E-02    0.547E-02
DAV:  26    -0.628485606224E+03    0.20624E-05   -0.26327E-04  9760   0.572E-02    0.392E-02
DAV:  27    -0.628485597567E+03    0.86575E-05   -0.14824E-04  8480   0.463E-02    0.227E-02
DAV:  28    -0.628485607455E+03   -0.98885E-05   -0.70687E-05  7520   0.313E-02
   1 F= -.62848561E+03 E0= -.62842003E+03  d E =-.628486E+03
 curvature:   0.00 expect dE= 0.000E+00 dE for cont linesearch  0.000E+00
 trial: gam= 0.00000 g(F)=  0.326E+02 g(S)=  0.000E+00 ort = 0.000E+00 (trialstep = 0.100E+01)
 search vector abs. value=  0.326E+02
 bond charge predicted
       N       E                     dE             d eps       ncg     rms          rms(c)
DAV:   1    -0.538935495376E+03    0.89550E+02   -0.60302E+03  8960   0.121E+02    0.247E+01
DAV:   2    -0.667713254334E+03   -0.12878E+03   -0.10685E+03  9600   0.428E+01    0.624E+01
DAV:   3    -0.735706360558E+03   -0.67993E+02   -0.50329E+02 11600   0.457E+01    0.757E+01
DAV:   4    -0.633676137894E+03    0.10203E+03   -0.18812E+02 11200   0.214E+01    0.241E+01
DAV:   5    -0.630120752166E+03    0.35554E+01   -0.58951E+01 11920   0.118E+01    0.145E+01
DAV:   6    -0.630919388005E+03   -0.79864E+00   -0.16836E+01 10680   0.112E+01    0.159E+01
DAV:   7    -0.637030082778E+03   -0.61107E+01   -0.29934E+01 11320   0.163E+01    0.221E+01
DAV:   8    -0.629692909463E+03    0.73372E+01   -0.31207E+01 11160   0.101E+01    0.109E+01
DAV:   9    -0.630235560202E+03   -0.54265E+00   -0.10280E+01 10560   0.103E+01    0.103E+01
DAV:  10    -0.629538518623E+03    0.69704E+00   -0.10459E+01 10280   0.859E+00    0.825E+00
DAV:  11    -0.628986620746E+03    0.55190E+00   -0.44033E+00  9760   0.584E+00    0.454E+00
DAV:  12    -0.628868010299E+03    0.11861E+00   -0.21808E+00 10360   0.445E+00    0.325E+00
DAV:  13    -0.628721657115E+03    0.14635E+00   -0.88513E-01 10120   0.322E+00    0.176E+00
DAV:  14    -0.628705362057E+03    0.16295E-01   -0.27255E-01 10760   0.171E+00    0.145E+00
DAV:  15    -0.628692072674E+03    0.13289E-01   -0.10696E-01  9680   0.109E+00    0.978E-01
DAV:  16    -0.628685980749E+03    0.60919E-02   -0.58733E-02 10160   0.916E-01    0.666E-01
DAV:  17    -0.628684679616E+03    0.13011E-02   -0.32210E-02 10320   0.662E-01    0.482E-01
DAV:  18    -0.628681729028E+03    0.29506E-02   -0.16834E-02 10640   0.513E-01    0.194E-01
DAV:  19    -0.628682338638E+03   -0.60961E-03   -0.68967E-03 11040   0.281E-01    0.218E-01
DAV:  20    -0.628681754238E+03    0.58440E-03   -0.34484E-03 10520   0.219E-01    0.860E-02
DAV:  21    -0.628681779564E+03   -0.25327E-04   -0.10149E-03 10640   0.109E-01    0.817E-02
DAV:  22    -0.628681707690E+03    0.71875E-04   -0.45072E-04  9840   0.796E-02    0.365E-02
DAV:  23    -0.628681706616E+03    0.10738E-05   -0.16273E-04  9920   0.430E-02    0.281E-02
DAV:  24    -0.628681705628E+03    0.98774E-06   -0.66576E-05  7760   0.289E-02
   2 F= -.62868171E+03 E0= -.62862152E+03  d E =-.196098E+00
 trial-energy change:   -0.196098  1 .order  -12.212664  -32.643366    8.218037
 step:   0.7989(harm=  0.7989)  dis= 0.73895  next Energy=  -641.524677 (dE=-0.130E+02)
 bond charge predicted
       N       E                     dE             d eps       ncg     rms          rms(c)
DAV:   1    -0.627329181504E+03    0.13525E+01   -0.33667E+02  7920   0.389E+01    0.670E+00
DAV:   2    -0.646492728140E+03   -0.19164E+02   -0.83440E+01 10080   0.212E+01    0.316E+01
DAV:   3    -0.635379674918E+03    0.11113E+02   -0.56869E+01 11320   0.156E+01    0.181E+01
DAV:   4    -0.630047385238E+03    0.53323E+01   -0.19828E+01 10760   0.852E+00    0.455E+00
DAV:   5    -0.630151648081E+03   -0.10426E+00   -0.22225E+00 11160   0.357E+00    0.351E+00
DAV:   6    -0.630273267320E+03   -0.12162E+00   -0.12722E+00 10560   0.416E+00    0.399E+00
DAV:   7    -0.631228455997E+03   -0.95519E+00   -0.47944E+00 10800   0.749E+00    0.694E+00
DAV:   8    -0.630169545001E+03    0.10589E+01   -0.49271E+00 10560   0.518E+00    0.261E+00
DAV:   9    -0.630126787260E+03    0.42758E-01   -0.64295E-01 10200   0.292E+00    0.185E+00
DAV:  10    -0.630114832622E+03    0.11955E-01   -0.31695E-01 10400   0.190E+00    0.138E+00
DAV:  11    -0.630088750575E+03    0.26082E-01   -0.93415E-02 10600   0.111E+00    0.591E-01
DAV:  12    -0.630088239411E+03    0.51116E-03   -0.17908E-02 11200   0.389E-01    0.496E-01
DAV:  13    -0.630086210551E+03    0.20289E-02   -0.77611E-03  9960   0.340E-01    0.331E-01
DAV:  14    -0.630086457350E+03   -0.24680E-03   -0.10648E-02 10000   0.367E-01    0.339E-01
DAV:  15    -0.630084727952E+03    0.17294E-02   -0.74821E-03 10120   0.311E-01    0.104E-01
DAV:  16    -0.630084771822E+03   -0.43871E-04   -0.16460E-03 11440   0.119E-01    0.866E-02
DAV:  17    -0.630084717351E+03    0.54472E-04   -0.53989E-04 10120   0.857E-02    0.496E-02
DAV:  18    -0.630084729132E+03   -0.11781E-04   -0.28674E-04 10040   0.597E-02    0.506E-02
DAV:  19    -0.630084705575E+03    0.23557E-04   -0.14116E-04  8800   0.442E-02    0.282E-02
DAV:  20    -0.630084699064E+03    0.65106E-05   -0.69551E-05  8320   0.306E-02
   3 F= -.63008470E+03 E0= -.63002741E+03  d E =-.159909E+01
 curvature:  -0.40 expect dE=-0.787E+00 dE for cont linesearch -0.480E+00
 ZBRENT: interpolating
 opt :   0.6703  next Energy=  -630.487559 (dE=-0.200E+01)
 bond charge predicted
       N       E                     dE             d eps       ncg     rms          rms(c)
DAV:   1    -0.629788364339E+03    0.29634E+00   -0.13341E+02  7720   0.263E+01    0.361E+00
DAV:   2    -0.634905907889E+03   -0.51175E+01   -0.30451E+01  9360   0.107E+01    0.155E+01
DAV:   3    -0.632560656394E+03    0.23453E+01   -0.22031E+01 10800   0.110E+01    0.900E+00
DAV:   4    -0.630868447044E+03    0.16922E+01   -0.67925E+00 10440   0.606E+00    0.216E+00
DAV:   5    -0.630884515371E+03   -0.16068E-01   -0.63211E-01 10760   0.214E+00    0.170E+00
DAV:   6    -0.630927615226E+03   -0.43100E-01   -0.46250E-01 10480   0.263E+00    0.192E+00
DAV:   7    -0.630973126221E+03   -0.45511E-01   -0.88017E-01 10960   0.330E+00    0.229E+00
DAV:   8    -0.630872444994E+03    0.10068E+00   -0.43741E-01 11680   0.220E+00    0.112E+00
DAV:   9    -0.630862481230E+03    0.99638E-02   -0.11837E-01  9920   0.133E+00    0.760E-01
DAV:  10    -0.630860285564E+03    0.21957E-02   -0.53320E-02 10320   0.824E-01    0.556E-01
DAV:  11    -0.630855934268E+03    0.43513E-02   -0.19504E-02 10920   0.529E-01    0.209E-01
DAV:  12    -0.630856039423E+03   -0.10516E-03   -0.40254E-03 11280   0.201E-01    0.181E-01
DAV:  13    -0.630855730083E+03    0.30934E-03   -0.18769E-03  9960   0.174E-01    0.104E-01
DAV:  14    -0.630855820515E+03   -0.90432E-04   -0.14704E-03  9880   0.142E-01    0.115E-01
DAV:  15    -0.630855613306E+03    0.20721E-03   -0.99279E-04  9880   0.119E-01    0.320E-02
DAV:  16    -0.630855628412E+03   -0.15106E-04   -0.31335E-04 10880   0.548E-02    0.347E-02
DAV:  17    -0.630855613550E+03    0.14862E-04   -0.10324E-04  9240   0.375E-02    0.137E-02
DAV:  18    -0.630855613400E+03    0.15029E-06   -0.24193E-05  6080   0.185E-02
   4 F= -.63085561E+03 E0= -.63079859E+03  d E =-.237001E+01
 curvature:  -0.34 expect dE=-0.546E+00 dE for cont linesearch -0.330E+00
 ZBRENT: bisectioning
 opt :   0.3351  next Energy=  -632.498461 (dE=-0.401E+01)
 bond charge predicted
       N       E                     dE             d eps       ncg     rms          rms(c)
DAV:   1    -0.622100641186E+03    0.87550E+01   -0.96862E+02  8760   0.618E+01    0.976E+00
DAV:   2    -0.646592754194E+03   -0.24492E+02   -0.14939E+02  8440   0.218E+01    0.318E+01
DAV:   3    -0.641958844056E+03    0.46339E+01   -0.70501E+01 10880   0.192E+01    0.219E+01
DAV:   4    -0.632752968239E+03    0.92059E+01   -0.38947E+01 10360   0.113E+01    0.694E+00
DAV:   5    -0.632403802618E+03    0.34917E+00   -0.62206E+00 10400   0.631E+00    0.462E+00
DAV:   6    -0.632228772580E+03    0.17503E+00   -0.27031E+00 10440   0.539E+00    0.317E+00
DAV:   7    -0.633316808394E+03   -0.10880E+01   -0.49858E+00 10840   0.774E+00    0.684E+00
DAV:   8    -0.632151520283E+03    0.11653E+01   -0.50764E+00 10840   0.542E+00    0.244E+00
DAV:   9    -0.632104588807E+03    0.46931E-01   -0.52009E-01 10480   0.254E+00    0.155E+00
DAV:  10    -0.632138186682E+03   -0.33598E-01   -0.38315E-01 10320   0.225E+00    0.187E+00
DAV:  11    -0.632090150242E+03    0.48036E-01   -0.19139E-01  9440   0.160E+00    0.765E-01
DAV:  12    -0.632090887917E+03   -0.73768E-03   -0.44915E-02 11720   0.674E-01    0.679E-01
DAV:  13    -0.632086010859E+03    0.48771E-02   -0.23575E-02 10040   0.591E-01    0.355E-01
DAV:  14    -0.632086206068E+03   -0.19521E-03   -0.15323E-02 10120   0.429E-01    0.332E-01
DAV:  15    -0.632084520336E+03    0.16857E-02   -0.72802E-03  9640   0.305E-01    0.939E-02
DAV:  16    -0.632084591243E+03   -0.70907E-04   -0.18701E-03 11080   0.136E-01    0.848E-02
DAV:  17    -0.632084534992E+03    0.56251E-04   -0.68005E-04 10320   0.997E-02    0.480E-02
DAV:  18    -0.632084518338E+03    0.16654E-04   -0.30179E-04  9760   0.686E-02    0.315E-02
DAV:  19    -0.632084514496E+03    0.38422E-05   -0.13544E-04  9000   0.461E-02    0.276E-02
DAV:  20    -0.632084503603E+03    0.10893E-04   -0.64852E-05  7960   0.326E-02    0.123E-02
DAV:  21    -0.632084504537E+03   -0.93406E-06   -0.19278E-05  5840   0.180E-02
   5 F= -.63208450E+03 E0= -.63202544E+03  d E =-.359890E+01
 curvature:  -1.67 expect dE=-0.195E+01 dE for cont linesearch -0.802E-02
 ZBRENT: interpolating
 opt :   0.3131  next Energy=  -632.089414 (dE=-0.360E+01)
 bond charge predicted
       N       E                     dE             d eps       ncg     rms          rms(c)
DAV:   1    -0.632050545180E+03    0.33958E-01   -0.40096E+00  8240   0.531E+00    0.558E-01
DAV:   2    -0.632099248586E+03   -0.48703E-01   -0.44670E-01  8800   0.119E+00    0.910E-01
DAV:   3    -0.632119813899E+03   -0.20565E-01   -0.31470E-01 10440   0.153E+00    0.125E+00
DAV:   4    -0.632088822416E+03    0.30991E-01   -0.16237E-01 10440   0.118E+00    0.456E-01
DAV:   5    -0.632087410275E+03    0.14121E-02   -0.19696E-02 10600   0.520E-01    0.333E-01
DAV:   6    -0.632091301451E+03   -0.38912E-02   -0.34178E-02 10880   0.727E-01    0.439E-01
DAV:   7    -0.632086576804E+03    0.47246E-02   -0.27802E-02 10440   0.638E-01    0.264E-01
DAV:   8    -0.632085717962E+03    0.85884E-03   -0.55268E-03  9560   0.290E-01    0.130E-01
DAV:   9    -0.632085557628E+03    0.16033E-03   -0.23235E-03 11040   0.186E-01    0.769E-02
DAV:  10    -0.632085544461E+03    0.13167E-04   -0.79054E-04 11640   0.106E-01    0.677E-02
DAV:  11    -0.632085474307E+03    0.70154E-04   -0.34806E-04  9400   0.697E-02    0.211E-02
DAV:  12    -0.632085482159E+03   -0.78521E-05   -0.11452E-04  9880   0.380E-02    0.279E-02
DAV:  13    -0.632085470551E+03    0.11608E-04   -0.63151E-05  7960   0.318E-02    0.846E-03
DAV:  14    -0.632085470896E+03   -0.34517E-06   -0.15780E-05  6040   0.152E-02
   6 F= -.63208547E+03 E0= -.63202616E+03  d E =-.359986E+01
 curvature:  -1.02 expect dE=-0.126E+01 dE for cont linesearch -0.334E-02
 ZBRENT: interpolating
 opt :   0.3231  next Energy=  -632.087100 (dE=-0.360E+01)
 bond charge predicted
       N       E                     dE             d eps       ncg     rms          rms(c)
DAV:   1    -0.632079894893E+03    0.55757E-02   -0.82228E-01  8200   0.241E+00    0.252E-01
DAV:   2    -0.632089377871E+03   -0.94830E-02   -0.88621E-02  8720   0.524E-01    0.381E-01
DAV:   3    -0.632094198921E+03   -0.48211E-02   -0.59453E-02 10280   0.665E-01    0.572E-01
DAV:   4    -0.632087693618E+03    0.65053E-02   -0.33696E-02 10560   0.532E-01    0.206E-01
DAV:   5    -0.632087914047E+03   -0.22043E-03   -0.57604E-03 10960   0.291E-01    0.193E-01
DAV:   6    -0.632087752547E+03    0.16150E-03   -0.78614E-03 11320   0.346E-01    0.169E-01
DAV:   7    -0.632087199815E+03    0.55273E-03   -0.41512E-03 10480   0.245E-01    0.117E-01
DAV:   8    -0.632087064664E+03    0.13515E-03   -0.11558E-03  9480   0.131E-01    0.631E-02
DAV:   9    -0.632087016809E+03    0.47855E-04   -0.47344E-04 10400   0.839E-02    0.314E-02
DAV:  10    -0.632087017677E+03   -0.86738E-06   -0.14617E-04 10240   0.459E-02    0.300E-02
DAV:  11    -0.632087003419E+03    0.14257E-04   -0.68642E-05  8320   0.317E-02    0.894E-03
DAV:  12    -0.632087004628E+03   -0.12083E-05   -0.17897E-05  6400   0.168E-02
   7 F= -.63208700E+03 E0= -.63202781E+03  d E =-.360140E+01
 curvature:  -0.50 expect dE=-0.597E+00 dE for cont linesearch -0.378E-05
 trial: gam= 0.03725 g(F)=  0.120E+01 g(S)=  0.000E+00 ort =-0.158E-01 (trialstep = 0.865E+00)
 search vector abs. value=  0.124E+01
 bond charge predicted
       N       E                     dE             d eps       ncg     rms          rms(c)
DAV:   1    -0.629696544957E+03    0.23905E+01   -0.23659E+02  8320   0.350E+01    0.478E+00
DAV:   2    -0.633200166891E+03   -0.35036E+01   -0.32131E+01  9520   0.109E+01    0.878E+00
DAV:   3    -0.634586810452E+03   -0.13866E+01   -0.16228E+01 11200   0.105E+01    0.989E+00
DAV:   4    -0.632497163545E+03    0.20896E+01   -0.83741E+00 11360   0.665E+00    0.363E+00
DAV:   5    -0.632439791900E+03    0.57372E-01   -0.10794E+00 10440   0.322E+00    0.286E+00
DAV:   6    -0.632661397256E+03   -0.22161E+00   -0.15318E+00 10320   0.458E+00    0.392E+00
DAV:   7    -0.633188293748E+03   -0.52690E+00   -0.43449E+00 11000   0.693E+00    0.562E+00
DAV:   8    -0.632400640427E+03    0.78765E+00   -0.33459E+00 10800   0.476E+00    0.153E+00
DAV:   9    -0.632383963496E+03    0.16677E-01   -0.33196E-01  9840   0.196E+00    0.909E-01
DAV:  10    -0.632379045724E+03    0.49178E-02   -0.10718E-01 10440   0.122E+00    0.692E-01
DAV:  11    -0.632371734755E+03    0.73110E-02   -0.35242E-02 10240   0.717E-01    0.257E-01
DAV:  12    -0.632372035803E+03   -0.30105E-03   -0.11885E-02 10920   0.373E-01    0.293E-01
DAV:  13    -0.632370840863E+03    0.11949E-02   -0.67163E-03 10360   0.323E-01    0.124E-01
DAV:  14    -0.632371103019E+03   -0.26216E-03   -0.43819E-03 11120   0.221E-01    0.154E-01
DAV:  15    -0.632370791736E+03    0.31128E-03   -0.18524E-03 10800   0.154E-01    0.547E-02
DAV:  16    -0.632370797557E+03   -0.58210E-05   -0.45508E-04 11480   0.682E-02    0.454E-02
DAV:  17    -0.632370785105E+03    0.12453E-04   -0.19455E-04 10240   0.505E-02    0.293E-02
DAV:  18    -0.632370775349E+03    0.97553E-05   -0.85086E-05  8280   0.358E-02
   8 F= -.63237078E+03 E0= -.63231163E+03  d E =-.283771E+00
 trial-energy change:   -0.283771  1 .order   -0.407695   -1.037321    0.221931
 step:   0.6050(harm=  0.7122)  dis= 0.06673  next Energy=  -632.407456 (dE=-0.320E+00)
 bond charge predicted
       N       E                     dE             d eps       ncg     rms          rms(c)
DAV:   1    -0.632180406187E+03    0.19038E+00   -0.20785E+01  8200   0.116E+01    0.126E+00
DAV:   2    -0.632435828749E+03   -0.25542E+00   -0.25737E+00  8680   0.282E+00    0.164E+00
DAV:   3    -0.632542522684E+03   -0.10669E+00   -0.97195E-01 10560   0.303E+00    0.245E+00
DAV:   4    -0.632432804304E+03    0.10972E+00   -0.86737E-01 10920   0.247E+00    0.121E+00
DAV:   5    -0.632425562047E+03    0.72423E-02   -0.17589E-01 11400   0.150E+00    0.919E-01
DAV:   6    -0.632414961763E+03    0.10600E-01   -0.16338E-01 11680   0.147E+00    0.702E-01
DAV:   7    -0.632410825194E+03    0.41366E-02   -0.76998E-02 10200   0.102E+00    0.664E-01
DAV:   8    -0.632405187907E+03    0.56373E-02   -0.34816E-02  9760   0.740E-01    0.254E-01
DAV:   9    -0.632405757453E+03   -0.56955E-03   -0.15606E-02 10160   0.456E-01    0.269E-01
DAV:  10    -0.632404815914E+03    0.94154E-03   -0.61316E-03 10720   0.296E-01    0.137E-01
DAV:  11    -0.632404563709E+03    0.25221E-03   -0.16701E-03 10880   0.151E-01    0.534E-02
DAV:  12    -0.632404561151E+03    0.25577E-05   -0.60624E-04 10320   0.912E-02    0.571E-02
DAV:  13    -0.632404517678E+03    0.43473E-04   -0.37308E-04  9920   0.749E-02    0.198E-02
DAV:  14    -0.632404530720E+03   -0.13041E-04   -0.14741E-04 10280   0.410E-02    0.285E-02
DAV:  15    -0.632404517565E+03    0.13155E-04   -0.59677E-05  7040   0.306E-02    0.948E-03
DAV:  16    -0.632404517779E+03   -0.21355E-06   -0.13665E-05  4880   0.141E-02
   9 F= -.63240452E+03 E0= -.63234548E+03  d E =-.317513E+00
 curvature:  -0.19 expect dE=-0.343E-01 dE for cont linesearch -0.288E-04
 trial: gam= 0.11490 g(F)=  0.184E+00 g(S)=  0.000E+00 ort = 0.139E-01 (trialstep = 0.813E+00)
 search vector abs. value=  0.204E+00
 bond charge predicted
       N       E                     dE             d eps       ncg     rms          rms(c)
DAV:   1    -0.631933478074E+03    0.47104E+00   -0.28776E+01  8400   0.202E+01    0.162E+00
DAV:   2    -0.632660923826E+03   -0.72745E+00   -0.69210E+00  8960   0.537E+00    0.308E+00
DAV:   3    -0.632971287533E+03   -0.31036E+00   -0.34793E+00 11640   0.554E+00    0.432E+00
DAV:   4    -0.632550643378E+03    0.42064E+00   -0.20825E+00 11240   0.375E+00    0.121E+00
DAV:   5    -0.632573366443E+03   -0.22723E-01   -0.32016E-01 11680   0.205E+00    0.135E+00
DAV:   6    -0.632530567693E+03    0.42799E-01   -0.24692E-01 11080   0.181E+00    0.738E-01
DAV:   7    -0.632528302540E+03    0.22652E-02   -0.64454E-02 10440   0.981E-01    0.705E-01
DAV:   8    -0.632522978891E+03    0.53236E-02   -0.43028E-02 10360   0.848E-01    0.395E-01
DAV:   9    -0.632523200334E+03   -0.22144E-03   -0.26010E-02 10560   0.610E-01    0.351E-01
DAV:  10    -0.632522016129E+03    0.11842E-02   -0.11262E-02 10320   0.427E-01    0.199E-01
DAV:  11    -0.632521540662E+03    0.47547E-03   -0.45849E-03 11280   0.253E-01    0.743E-02
DAV:  12    -0.632521639392E+03   -0.98730E-04   -0.13866E-03 11280   0.144E-01    0.986E-02
DAV:  13    -0.632521472070E+03    0.16732E-03   -0.79006E-04 10120   0.120E-01    0.313E-02
DAV:  14    -0.632521498059E+03   -0.25990E-04   -0.34922E-04 10280   0.603E-02    0.456E-02
DAV:  15    -0.632521470300E+03    0.27759E-04   -0.16862E-04  9960   0.458E-02    0.158E-02
DAV:  16    -0.632521468966E+03    0.13337E-05   -0.34993E-05  6880   0.210E-02
  10 F= -.63252147E+03 E0= -.63246282E+03  d E =-.116951E+00
 trial-energy change:   -0.116951  1 .order   -0.116722   -0.151060   -0.082383
 step:   1.7876(harm=  1.7876)  dis= 0.05710  next Energy=  -632.570652 (dE=-0.166E+00)
 bond charge predicted
       N       E                     dE             d eps       ncg     rms          rms(c)
DAV:   1    -0.631724827298E+03    0.79664E+00   -0.41392E+01  8440   0.242E+01    0.195E+00
DAV:   2    -0.632756068821E+03   -0.10312E+01   -0.98861E+00  8760   0.640E+00    0.360E+00
DAV:   3    -0.633215487643E+03   -0.45942E+00   -0.46550E+00 11560   0.647E+00    0.510E+00
DAV:   4    -0.632613641858E+03    0.60185E+00   -0.28727E+00 11040   0.435E+00    0.148E+00
DAV:   5    -0.632643423725E+03   -0.29782E-01   -0.46099E-01 11760   0.244E+00    0.160E+00
DAV:   6    -0.632583244637E+03    0.60179E-01   -0.35383E-01 11120   0.212E+00    0.889E-01
DAV:   7    -0.632579729124E+03    0.35155E-02   -0.91481E-02 10320   0.116E+00    0.840E-01
DAV:   8    -0.632572575775E+03    0.71533E-02   -0.62228E-02 10320   0.100E+00    0.483E-01
DAV:   9    -0.632573156076E+03   -0.58030E-03   -0.40285E-02 10440   0.755E-01    0.445E-01
DAV:  10    -0.632571090270E+03    0.20658E-02   -0.17598E-02 10440   0.533E-01    0.242E-01
DAV:  11    -0.632570390011E+03    0.70026E-03   -0.69407E-03 11280   0.307E-01    0.889E-02
DAV:  12    -0.632570519230E+03   -0.12922E-03   -0.20047E-03 11120   0.172E-01    0.115E-01
DAV:  13    -0.632570293230E+03    0.22600E-03   -0.11077E-03 10200   0.143E-01    0.380E-02
DAV:  14    -0.632570329982E+03   -0.36752E-04   -0.48420E-04 10320   0.747E-02    0.548E-02
DAV:  15    -0.632570288034E+03    0.41947E-04   -0.24575E-04 10200   0.574E-02    0.177E-02
DAV:  16    -0.632570287910E+03    0.12488E-06   -0.58291E-05  7960   0.252E-02
  11 F= -.63257029E+03 E0= -.63251217E+03  d E =-.165770E+00
 curvature:  -0.98 expect dE=-0.117E+00 dE for cont linesearch -0.237E-04
 trial: gam= 0.62268 g(F)=  0.119E+00 g(S)=  0.000E+00 ort =-0.222E-02 (trialstep = 0.101E+01)
 search vector abs. value=  0.196E+00
 bond charge predicted
       N       E                     dE             d eps       ncg     rms          rms(c)
DAV:   1    -0.631821849829E+03    0.74844E+00   -0.43842E+01  8440   0.235E+01    0.191E+00
DAV:   2    -0.632712175716E+03   -0.89033E+00   -0.91201E+00  8440   0.583E+00    0.269E+00
DAV:   3    -0.632981032851E+03   -0.26886E+00   -0.21253E+00 11320   0.489E+00    0.376E+00
DAV:   4    -0.632709313743E+03    0.27172E+00   -0.21463E+00 11560   0.374E+00    0.184E+00
DAV:   5    -0.632719659972E+03   -0.10346E-01   -0.57730E-01 11720   0.251E+00    0.167E+00
DAV:   6    -0.632659865411E+03    0.59795E-01   -0.39813E-01 11440   0.221E+00    0.101E+00
DAV:   7    -0.632658055990E+03    0.18094E-02   -0.13627E-01 10200   0.143E+00    0.104E+00
DAV:   8    -0.632644327303E+03    0.13729E-01   -0.97140E-02 10040   0.122E+00    0.450E-01
DAV:   9    -0.632645248156E+03   -0.92085E-03   -0.40122E-02 10760   0.704E-01    0.413E-01
DAV:  10    -0.632643359572E+03    0.18886E-02   -0.13929E-02 10440   0.458E-01    0.194E-01
DAV:  11    -0.632643035947E+03    0.32362E-03   -0.48830E-03 11560   0.258E-01    0.115E-01
DAV:  12    -0.632642949892E+03    0.86055E-04   -0.20426E-03 10560   0.185E-01    0.116E-01
DAV:  13    -0.632642740954E+03    0.20894E-03   -0.13439E-03 10160   0.146E-01    0.355E-02
DAV:  14    -0.632642787549E+03   -0.46594E-04   -0.52545E-04 11320   0.766E-02    0.538E-02
DAV:  15    -0.632642744940E+03    0.42609E-04   -0.23102E-04 10280   0.577E-02    0.148E-02
DAV:  16    -0.632642745926E+03   -0.98621E-06   -0.43964E-05  7200   0.229E-02
  12 F= -.63264275E+03 E0= -.63258588E+03  d E =-.724580E-01
 trial-energy change:   -0.072458  1 .order   -0.073211   -0.118918   -0.027505
 step:   1.3321(harm=  1.3108)  dis= 0.04433  next Energy=  -632.647148 (dE=-0.769E-01)
 bond charge predicted
       N       E                     dE             d eps       ncg     rms          rms(c)
DAV:   1    -0.632562789965E+03    0.79955E-01   -0.45268E+00  8440   0.761E+00    0.601E-01
DAV:   2    -0.632652502341E+03   -0.89712E-01   -0.93478E-01  8120   0.180E+00    0.777E-01
DAV:   3    -0.632660514285E+03   -0.80119E-02   -0.13606E-01 10360   0.140E+00    0.735E-01
DAV:   4    -0.632658646229E+03    0.18681E-02   -0.12921E-01 11840   0.120E+00    0.682E-01
DAV:   5    -0.632655126353E+03    0.35199E-02   -0.87276E-02 10600   0.853E-01    0.572E-01
DAV:   6    -0.632648799225E+03    0.63271E-02   -0.45221E-02 11240   0.684E-01    0.312E-01
DAV:   7    -0.632648728913E+03    0.70312E-04   -0.13223E-02 10640   0.426E-01    0.323E-01
DAV:   8    -0.632647366504E+03    0.13624E-02   -0.94472E-03  9880   0.385E-01    0.140E-01
DAV:   9    -0.632647455356E+03   -0.88852E-04   -0.38974E-03 10640   0.219E-01    0.130E-01
DAV:  10    -0.632647262653E+03    0.19270E-03   -0.13089E-03  9960   0.143E-01    0.586E-02
DAV:  11    -0.632647239678E+03    0.22975E-04   -0.45314E-04 11640   0.779E-02    0.376E-02
DAV:  12    -0.632647232416E+03    0.72612E-05   -0.19963E-04 10320   0.585E-02    0.362E-02
DAV:  13    -0.632647211137E+03    0.21279E-04   -0.12599E-04  8960   0.456E-02    0.111E-02
DAV:  14    -0.632647215196E+03   -0.40586E-05   -0.46033E-05  7480   0.244E-02
  13 F= -.63264722E+03 E0= -.63259070E+03  d E =-.769273E-01
 curvature:  -1.08 expect dE=-0.621E-01 dE for cont linesearch -0.421E-06
 trial: gam= 0.43194 g(F)=  0.574E-01 g(S)=  0.000E+00 ort =-0.276E-03 (trialstep = 0.107E+01)
 search vector abs. value=  0.937E-01
 bond charge predicted
       N       E                     dE             d eps       ncg     rms          rms(c)
DAV:   1    -0.632318118754E+03    0.32909E+00   -0.25027E+01  8280   0.156E+01    0.133E+00
DAV:   2    -0.632711686610E+03   -0.39357E+00   -0.40478E+00  8360   0.374E+00    0.164E+00
DAV:   3    -0.632916876899E+03   -0.20519E+00   -0.13683E+00 11360   0.380E+00    0.313E+00
DAV:   4    -0.632713897365E+03    0.20298E+00   -0.12834E+00 10920   0.292E+00    0.124E+00
DAV:   5    -0.632712981296E+03    0.91607E-03   -0.21800E-01 11480   0.165E+00    0.102E+00
DAV:   6    -0.632694171855E+03    0.18809E-01   -0.17028E-01 11200   0.153E+00    0.695E-01
DAV:   7    -0.632693368156E+03    0.80370E-03   -0.75019E-02 10760   0.102E+00    0.733E-01
DAV:   8    -0.632686629896E+03    0.67383E-02   -0.48695E-02 10160   0.849E-01    0.290E-01
DAV:   9    -0.632687546205E+03   -0.91631E-03   -0.20907E-02 10440   0.515E-01    0.319E-01
DAV:  10    -0.632686195607E+03    0.13506E-02   -0.79953E-03 10600   0.340E-01    0.139E-01
DAV:  11    -0.632685996878E+03    0.19873E-03   -0.21227E-03 10760   0.166E-01    0.730E-02
DAV:  12    -0.632685969567E+03    0.27311E-04   -0.87164E-04 10600   0.121E-01    0.724E-02
DAV:  13    -0.632685895961E+03    0.73606E-04   -0.60451E-04 10240   0.957E-02    0.275E-02
DAV:  14    -0.632685909865E+03   -0.13904E-04   -0.24278E-04 10440   0.514E-02    0.330E-02
DAV:  15    -0.632685894366E+03    0.15499E-04   -0.88783E-05  8680   0.360E-02    0.987E-03
DAV:  16    -0.632685894923E+03   -0.55679E-06   -0.15226E-05  5480   0.155E-02
  14 F= -.63268589E+03 E0= -.63262945E+03  d E =-.386797E-01
 trial-energy change:   -0.038680  1 .order   -0.039153   -0.061431   -0.016876
 step:   1.5191(harm=  1.4788)  dis= 0.05690  next Energy=  -632.689374 (dE=-0.422E-01)
 bond charge predicted
       N       E                     dE             d eps       ncg     rms          rms(c)
DAV:   1    -0.632626045777E+03    0.59849E-01   -0.43348E+00  8280   0.650E+00    0.536E-01
DAV:   2    -0.632692459029E+03   -0.66413E-01   -0.69354E-01  8000   0.153E+00    0.627E-01
DAV:   3    -0.632712847594E+03   -0.20389E-01   -0.16133E-01 11400   0.137E+00    0.100E+00
DAV:   4    -0.632696064684E+03    0.16783E-01   -0.16801E-01 11320   0.115E+00    0.585E-01
DAV:   5    -0.632694055052E+03    0.20096E-02   -0.47346E-02 11200   0.714E-01    0.424E-01
DAV:   6    -0.632690548342E+03    0.35067E-02   -0.27388E-02 11160   0.624E-01    0.271E-01
DAV:   7    -0.632690575066E+03   -0.26724E-04   -0.11519E-02 10400   0.397E-01    0.293E-01
DAV:   8    -0.632689491701E+03    0.10834E-02   -0.79333E-03 10080   0.350E-01    0.118E-01
DAV:   9    -0.632689618882E+03   -0.12718E-03   -0.34050E-03 10440   0.209E-01    0.126E-01
DAV:  10    -0.632689410815E+03    0.20807E-03   -0.12450E-03 10720   0.135E-01    0.552E-02
DAV:  11    -0.632689380451E+03    0.30364E-04   -0.33398E-04 10280   0.671E-02    0.300E-02
DAV:  12    -0.632689376562E+03    0.38889E-05   -0.14788E-04 10160   0.504E-02    0.306E-02
DAV:  13    -0.632689362940E+03    0.13622E-04   -0.10608E-04  9080   0.401E-02    0.108E-02
DAV:  14    -0.632689364986E+03   -0.20459E-05   -0.35432E-05  7120   0.209E-02
  15 F= -.63268936E+03 E0= -.63263294E+03  d E =-.421498E-01
 curvature:  -1.20 expect dE=-0.295E-01 dE for cont linesearch -0.125E-05
 trial: gam= 0.42057 g(F)=  0.246E-01 g(S)=  0.000E+00 ort =-0.313E-03 (trialstep = 0.116E+01)
 search vector abs. value=  0.409E-01
 bond charge predicted
       N       E                     dE             d eps       ncg     rms          rms(c)
DAV:   1    -0.632462989085E+03    0.22637E+00   -0.11461E+01  8320   0.131E+01    0.964E-01
DAV:   2    -0.632744121561E+03   -0.28113E+00   -0.28183E+00  8080   0.314E+00    0.147E+00
DAV:   3    -0.632821927781E+03   -0.77806E-01   -0.11570E+00 11880   0.315E+00    0.220E+00
DAV:   4    -0.632722152766E+03    0.99775E-01   -0.51236E-01 11240   0.200E+00    0.739E-01
DAV:   5    -0.632722971082E+03   -0.81832E-03   -0.86344E-02 11000   0.114E+00    0.661E-01
DAV:   6    -0.632714612305E+03    0.83588E-02   -0.66446E-02 10640   0.982E-01    0.423E-01
DAV:   7    -0.632714532449E+03    0.79855E-04   -0.25235E-02 10480   0.630E-01    0.450E-01
DAV:   8    -0.632711579935E+03    0.29525E-02   -0.15572E-02 10240   0.518E-01    0.159E-01
DAV:   9    -0.632712154442E+03   -0.57451E-03   -0.75131E-03 10360   0.313E-01    0.204E-01
DAV:  10    -0.632711592480E+03    0.56196E-03   -0.32340E-03 10640   0.221E-01    0.738E-02
DAV:  11    -0.632711584213E+03    0.82672E-05   -0.94180E-04 11360   0.997E-02    0.514E-02
DAV:  12    -0.632711566050E+03    0.18163E-04   -0.34284E-04 10400   0.729E-02    0.405E-02
DAV:  13    -0.632711548866E+03    0.17184E-04   -0.20883E-04  9760   0.549E-02    0.205E-02
DAV:  14    -0.632711551755E+03   -0.28893E-05   -0.80920E-05  8280   0.315E-02
  16 F= -.63271155E+03 E0= -.63265493E+03  d E =-.221868E-01
 trial-energy change:   -0.022187  1 .order   -0.021858   -0.028429   -0.015286
 step:   2.2127(harm=  2.5132)  dis= 0.04269  next Energy=  -632.718708 (dE=-0.293E-01)
 bond charge predicted
       N       E                     dE             d eps       ncg     rms          rms(c)
DAV:   1    -0.632518065154E+03    0.19348E+00   -0.93876E+00  8400   0.118E+01    0.869E-01
DAV:   2    -0.632743335840E+03   -0.22527E+00   -0.22812E+00  8160   0.281E+00    0.126E+00
DAV:   3    -0.632817758313E+03   -0.74422E-01   -0.94468E-01 11800   0.285E+00    0.207E+00
DAV:   4    -0.632728792480E+03    0.88966E-01   -0.45168E-01 11440   0.185E+00    0.661E-01
DAV:   5    -0.632729858029E+03   -0.10655E-02   -0.71821E-02 11040   0.103E+00    0.602E-01
DAV:   6    -0.632722800529E+03    0.70575E-02   -0.54682E-02 10760   0.893E-01    0.383E-01
DAV:   7    -0.632722836387E+03   -0.35858E-04   -0.20688E-02 10480   0.571E-01    0.410E-01
DAV:   8    -0.632720378592E+03    0.24578E-02   -0.12999E-02 10120   0.474E-01    0.143E-01
DAV:   9    -0.632720863454E+03   -0.48486E-03   -0.61827E-03 10440   0.284E-01    0.186E-01
DAV:  10    -0.632720394057E+03    0.46940E-03   -0.26770E-03 10560   0.201E-01    0.672E-02
DAV:  11    -0.632720385646E+03    0.84111E-05   -0.77300E-04 11480   0.901E-02    0.460E-02
DAV:  12    -0.632720370562E+03    0.15084E-04   -0.27075E-04 10400   0.647E-02    0.357E-02
DAV:  13    -0.632720357642E+03    0.12920E-04   -0.16473E-04  9520   0.491E-02    0.186E-02
DAV:  14    -0.632720359421E+03   -0.17784E-05   -0.62334E-05  7720   0.282E-02
  17 F= -.63272036E+03 E0= -.63266357E+03  d E =-.309944E-01
 curvature:  -2.00 expect dE=-0.258E-01 dE for cont linesearch -0.415E-03
 ZBRENT: extrapolating
 opt :   2.5121  next Energy=  -632.720796 (dE=-0.314E-01)
 bond charge predicted
       N       E                     dE             d eps       ncg     rms          rms(c)
DAV:   1    -0.632704456130E+03    0.15902E-01   -0.76179E-01  8400   0.337E+00    0.246E-01
DAV:   2    -0.632722263427E+03   -0.17807E-01   -0.18354E-01  8160   0.784E-01    0.326E-01
DAV:   3    -0.632729997744E+03   -0.77343E-02   -0.80031E-02 11600   0.817E-01    0.633E-01
DAV:   4    -0.632721544282E+03    0.84535E-02   -0.42265E-02 11640   0.574E-01    0.187E-01
DAV:   5    -0.632721612812E+03   -0.68530E-04   -0.56467E-03 10760   0.293E-01    0.168E-01
DAV:   6    -0.632721090315E+03    0.52250E-03   -0.44598E-03 10440   0.261E-01    0.111E-01
DAV:   7    -0.632721094819E+03   -0.45031E-05   -0.17585E-03 10480   0.167E-01    0.119E-01
DAV:   8    -0.632720887354E+03    0.20746E-03   -0.11063E-03 10040   0.139E-01    0.405E-02
DAV:   9    -0.632720925706E+03   -0.38352E-04   -0.50248E-04 10040   0.804E-02    0.520E-02
DAV:  10    -0.632720889128E+03    0.36578E-04   -0.21330E-04 10120   0.569E-02    0.198E-02
DAV:  11    -0.632720887062E+03    0.20666E-05   -0.57806E-05  8080   0.258E-02
  18 F= -.63272089E+03 E0= -.63266407E+03  d E =-.315221E-01
 curvature:  -2.10 expect dE=-0.346E-01 dE for cont linesearch -0.119E-04
 trial: gam= 0.64305 g(F)=  0.165E-01 g(S)=  0.000E+00 ort = 0.481E-03 (trialstep = 0.143E+01)
 search vector abs. value=  0.340E-01
 bond charge predicted
       N       E                     dE             d eps       ncg     rms          rms(c)
DAV:   1    -0.632414001728E+03    0.30689E+00   -0.14719E+01  8320   0.145E+01    0.113E+00
DAV:   2    -0.632768271413E+03   -0.35427E+00   -0.35876E+00  8080   0.350E+00    0.161E+00
DAV:   3    -0.632897227740E+03   -0.12896E+00   -0.15229E+00 11600   0.359E+00    0.268E+00
DAV:   4    -0.632758130606E+03    0.13910E+00   -0.86175E-01 11120   0.239E+00    0.106E+00
DAV:   5    -0.632754584503E+03    0.35461E-02   -0.21001E-01 10960   0.168E+00    0.907E-01
DAV:   6    -0.632736015124E+03    0.18569E-01   -0.97845E-02 11200   0.118E+00    0.498E-01
DAV:   7    -0.632737339840E+03   -0.13247E-02   -0.37475E-02 10280   0.698E-01    0.558E-01
DAV:   8    -0.632733275142E+03    0.40647E-02   -0.27315E-02  9960   0.648E-01    0.187E-01
DAV:   9    -0.632734269891E+03   -0.99475E-03   -0.10907E-02 10320   0.359E-01    0.256E-01
DAV:  10    -0.632733352258E+03    0.91763E-03   -0.53239E-03 11000   0.268E-01    0.923E-02
DAV:  11    -0.632733324531E+03    0.27727E-04   -0.13979E-03 11400   0.124E-01    0.703E-02
DAV:  12    -0.632733272931E+03    0.51600E-04   -0.58225E-04 10440   0.971E-02    0.471E-02
DAV:  13    -0.632733256215E+03    0.16716E-04   -0.33910E-04 10280   0.706E-02    0.288E-02
DAV:  14    -0.632733251563E+03    0.46524E-05   -0.12085E-04 10080   0.390E-02    0.197E-02
DAV:  15    -0.632733245997E+03    0.55656E-05   -0.34361E-05  6520   0.227E-02
  19 F= -.63273325E+03 E0= -.63267645E+03  d E =-.123589E-01
 trial-energy change:   -0.012359  1 .order   -0.012430   -0.024053   -0.000807
 step:   1.4826(harm=  1.4816)  dis= 0.02327  next Energy=  -632.733260 (dE=-0.124E-01)
 bond charge predicted
       N       E                     dE             d eps       ncg     rms          rms(c)
DAV:   1    -0.632732867886E+03    0.38368E-03   -0.18228E-02  8480   0.510E-01    0.398E-02
DAV:   2    -0.632733326505E+03   -0.45862E-03   -0.44891E-03  8280   0.130E-01    0.639E-02
DAV:   3    -0.632733462104E+03   -0.13560E-03   -0.20550E-03 11480   0.137E-01    0.935E-02
DAV:   4    -0.632733313521E+03    0.14858E-03   -0.11844E-03  9800   0.968E-02    0.452E-02
DAV:   5    -0.632733297905E+03    0.15615E-04   -0.38625E-04  8080   0.743E-02    0.368E-02
DAV:   6    -0.632733265621E+03    0.32284E-04   -0.13079E-04  7000   0.462E-02    0.166E-02
DAV:   7    -0.632733269414E+03   -0.37931E-05   -0.50221E-05  7600   0.254E-02
  20 F= -.63273327E+03 E0= -.63267648E+03  d E =-.123824E-01
 curvature:  -1.50 expect dE=-0.111E-01 dE for cont linesearch -0.711E-05
 trial: gam= 0.44457 g(F)=  0.741E-02 g(S)=  0.000E+00 ort = 0.401E-03 (trialstep = 0.144E+01)
 search vector abs. value=  0.145E-01
 bond charge predicted
       N       E                     dE             d eps       ncg     rms          rms(c)
DAV:   1    -0.632602375332E+03    0.13089E+00   -0.63574E+00  8360   0.978E+00    0.723E-01
DAV:   2    -0.632778308386E+03   -0.17593E+00   -0.16287E+00  8280   0.255E+00    0.148E+00
DAV:   3    -0.632779468122E+03   -0.11597E-02   -0.70396E-01 11680   0.244E+00    0.134E+00
DAV:   4    -0.632754471022E+03    0.24997E-01   -0.25083E-01 10960   0.147E+00    0.748E-01
DAV:   5    -0.632749010157E+03    0.54609E-02   -0.10164E-01 10680   0.121E+00    0.581E-01
DAV:   6    -0.632741281667E+03    0.77285E-02   -0.36637E-02 11160   0.751E-01    0.302E-01
DAV:   7    -0.632742005035E+03   -0.72337E-03   -0.15581E-02 10280   0.438E-01    0.357E-01
DAV:   8    -0.632740260337E+03    0.17447E-02   -0.11478E-02  9960   0.417E-01    0.130E-01
DAV:   9    -0.632740596656E+03   -0.33632E-03   -0.47645E-03 10240   0.241E-01    0.162E-01
DAV:  10    -0.632740259695E+03    0.33696E-03   -0.20369E-03 11280   0.172E-01    0.659E-02
DAV:  11    -0.632740233175E+03    0.26520E-04   -0.59924E-04 11080   0.861E-02    0.409E-02
DAV:  12    -0.632740226269E+03    0.69055E-05   -0.22711E-04 10480   0.622E-02    0.352E-02
DAV:  13    -0.632740211097E+03    0.15173E-04   -0.15328E-04  9160   0.498E-02    0.157E-02
DAV:  14    -0.632740212215E+03   -0.11181E-05   -0.44583E-05  7320   0.246E-02
  21 F= -.63274021E+03 E0= -.63268327E+03  d E =-.694280E-02
 trial-energy change:   -0.006943  1 .order   -0.006885   -0.010950   -0.002819
 step:   1.9151(harm=  1.9421)  dis= 0.02235  next Energy=  -632.740677 (dE=-0.741E-02)
 bond charge predicted
       N       E                     dE             d eps       ncg     rms          rms(c)
DAV:   1    -0.632725951051E+03    0.14260E-01   -0.68475E-01  8360   0.321E+00    0.236E-01
DAV:   2    -0.632744417044E+03   -0.18466E-01   -0.17381E-01  8160   0.826E-01    0.460E-01
DAV:   3    -0.632745460191E+03   -0.10431E-02   -0.75131E-02 11520   0.809E-01    0.457E-01
DAV:   4    -0.632742514541E+03    0.29457E-02   -0.29904E-02 11400   0.510E-01    0.255E-01
DAV:   5    -0.632741723363E+03    0.79118E-03   -0.11556E-02 10560   0.413E-01    0.189E-01
DAV:   6    -0.632740929266E+03    0.79410E-03   -0.38107E-03 10800   0.245E-01    0.988E-02
DAV:   7    -0.632741013914E+03   -0.84648E-04   -0.16812E-03 10320   0.146E-01    0.118E-01
DAV:   8    -0.632740819252E+03    0.19466E-03   -0.12226E-03 10040   0.139E-01    0.419E-02
DAV:   9    -0.632740855972E+03   -0.36720E-04   -0.50605E-04 10320   0.794E-02    0.529E-02
DAV:  10    -0.632740819825E+03    0.36147E-04   -0.21750E-04 10640   0.567E-02    0.213E-02
DAV:  11    -0.632740817014E+03    0.28113E-05   -0.59923E-05  7920   0.280E-02
  22 F= -.63274082E+03 E0= -.63268382E+03  d E =-.754760E-02
 curvature:  -1.85 expect dE=-0.505E-02 dE for cont linesearch -0.353E-04
 trial: gam= 0.29646 g(F)=  0.273E-02 g(S)=  0.000E+00 ort = 0.526E-03 (trialstep = 0.154E+01)
 search vector abs. value=  0.432E-02
 bond charge predicted
       N       E                     dE             d eps       ncg     rms          rms(c)
DAV:   1    -0.632693223967E+03    0.47596E-01   -0.21026E+00  8440   0.584E+00    0.450E-01
DAV:   2    -0.632758875220E+03   -0.65651E-01   -0.60194E-01  8320   0.157E+00    0.944E-01
DAV:   3    -0.632760397225E+03   -0.15220E-02   -0.28340E-01 11640   0.155E+00    0.868E-01
DAV:   4    -0.632746445248E+03    0.13952E-01   -0.94749E-02 11240   0.932E-01    0.373E-01
DAV:   5    -0.632746245674E+03    0.19957E-03   -0.21034E-02 10840   0.577E-01    0.319E-01
DAV:   6    -0.632744170189E+03    0.20755E-02   -0.14838E-02 10600   0.478E-01    0.195E-01
DAV:   7    -0.632744207946E+03   -0.37757E-04   -0.57558E-03 10400   0.287E-01    0.209E-01
DAV:   8    -0.632743602076E+03    0.60587E-03   -0.37300E-03 10120   0.250E-01    0.877E-02
DAV:   9    -0.632743701079E+03   -0.99003E-04   -0.19615E-03 10360   0.164E-01    0.986E-02
DAV:  10    -0.632743586931E+03    0.11415E-03   -0.84253E-04 10600   0.115E-01    0.452E-02
DAV:  11    -0.632743568283E+03    0.18648E-04   -0.26112E-04 10760   0.577E-02    0.216E-02
DAV:  12    -0.632743570974E+03   -0.26909E-05   -0.87488E-05  8840   0.383E-02
  23 F= -.63274357E+03 E0= -.63268658E+03  d E =-.275396E-02
 trial-energy change:   -0.002754  1 .order   -0.002689   -0.004435   -0.000944
 step:   1.9021(harm=  1.9523)  dis= 0.01026  next Energy=  -632.743684 (dE=-0.287E-02)
 bond charge predicted
       N       E                     dE             d eps       ncg     rms          rms(c)
DAV:   1    -0.632740852667E+03    0.27156E-02   -0.11989E-01  8440   0.139E+00    0.107E-01
DAV:   2    -0.632744672055E+03   -0.38194E-02   -0.34733E-02  8320   0.379E-01    0.232E-01
DAV:   3    -0.632744665563E+03    0.64924E-05   -0.16242E-02 11600   0.375E-01    0.202E-01
DAV:   4    -0.632743896684E+03    0.76888E-03   -0.48764E-03 11320   0.224E-01    0.873E-02
DAV:   5    -0.632743770549E+03    0.12614E-03   -0.56947E-04 10400   0.100E-01    0.464E-02
DAV:   6    -0.632743878267E+03   -0.10772E-03   -0.64472E-04 10240   0.101E-01    0.697E-02
DAV:   7    -0.632743801831E+03    0.76436E-04   -0.79518E-04 10080   0.112E-01    0.548E-02
DAV:   8    -0.632743748317E+03    0.53514E-04   -0.26265E-04  9360   0.682E-02    0.227E-02
DAV:   9    -0.632743753039E+03   -0.47220E-05   -0.13357E-04  9480   0.420E-02    0.234E-02
DAV:  10    -0.632743747061E+03    0.59786E-05   -0.48346E-05  7200   0.274E-02
  24 F= -.63274375E+03 E0= -.63268676E+03  d E =-.293005E-02
 curvature:  -1.44 expect dE=-0.204E-02 dE for cont linesearch -0.427E-04
 ZBRENT: increasing intervall
 opt :   2.6329  next Energy=  -632.743821 (dE=-0.300E-02)
 bond charge predicted
       N       E                     dE             d eps       ncg     rms          rms(c)
DAV:   1    -0.632732227804E+03    0.11525E-01   -0.47482E-01  8440   0.277E+00    0.215E-01
DAV:   2    -0.632746510617E+03   -0.14283E-01   -0.13431E-01  8320   0.734E-01    0.421E-01
DAV:   3    -0.632747937488E+03   -0.14269E-02   -0.63892E-02 11560   0.739E-01    0.440E-01
DAV:   4    -0.632744166853E+03    0.37706E-02   -0.23129E-02 11320   0.465E-01    0.172E-01
DAV:   5    -0.632743916361E+03    0.25049E-03   -0.33812E-03 10800   0.237E-01    0.124E-01
DAV:   6    -0.632743791551E+03    0.12481E-03   -0.28413E-03 10560   0.210E-01    0.103E-01
DAV:   7    -0.632743725304E+03    0.66246E-04   -0.15253E-03 10560   0.153E-01    0.989E-02
DAV:   8    -0.632743588976E+03    0.13633E-03   -0.82845E-04 10240   0.119E-01    0.434E-02
DAV:   9    -0.632743606272E+03   -0.17297E-04   -0.45380E-04 10040   0.789E-02    0.457E-02
DAV:  10    -0.632743584235E+03    0.22037E-04   -0.19202E-04 10080   0.538E-02    0.218E-02
DAV:  11    -0.632743579496E+03    0.47391E-05   -0.57446E-05  8360   0.277E-02
  25 F= -.63274358E+03 E0= -.63268661E+03  d E =-.276248E-02
 curvature:  -2.50 expect dE=-0.739E-02 dE for cont linesearch -0.231E-03
 ZBRENT: bracketing found
 ZBRENT: interpolating
 opt :   2.1666  next Energy=  -632.743794 (dE=-0.298E-02)
 bond charge predicted
       N       E                     dE             d eps       ncg     rms          rms(c)
DAV:   1    -0.632739175085E+03    0.44092E-02   -0.19279E-01  8440   0.176E+00    0.136E-01
DAV:   2    -0.632744990073E+03   -0.58150E-02   -0.54326E-02  8320   0.469E-01    0.271E-01
DAV:   3    -0.632745541808E+03   -0.55174E-03   -0.25561E-02 11560   0.470E-01    0.279E-01
DAV:   4    -0.632744035817E+03    0.15060E-02   -0.91256E-03 11120   0.304E-01    0.113E-01
DAV:   5    -0.632744059240E+03   -0.23423E-04   -0.21528E-03 11040   0.185E-01    0.102E-01
DAV:   6    -0.632743820416E+03    0.23882E-03   -0.15116E-03 10680   0.154E-01    0.580E-02
DAV:   7    -0.632743829462E+03   -0.90457E-05   -0.50913E-04 10360   0.868E-02    0.630E-02
DAV:   8    -0.632743776725E+03    0.52737E-04   -0.33672E-04  9320   0.775E-02    0.299E-02
DAV:   9    -0.632743778044E+03   -0.13191E-05   -0.18529E-04  9320   0.502E-02    0.265E-02
DAV:  10    -0.632743771487E+03    0.65578E-05   -0.70799E-05  8160   0.319E-02
  26 F= -.63274377E+03 E0= -.63268679E+03  d E =-.295447E-02
 curvature:  -0.51 expect dE=-0.936E-03 dE for cont linesearch -0.508E-05
 trial: gam= 0.78399 g(F)=  0.183E-02 g(S)=  0.000E+00 ort =-0.207E-03 (trialstep = 0.166E+01)
 search vector abs. value=  0.415E-02
 bond charge predicted
       N       E                     dE             d eps       ncg     rms          rms(c)
DAV:   1    -0.632684792285E+03    0.58986E-01   -0.22850E+00  8440   0.642E+00    0.483E-01
DAV:   2    -0.632754459731E+03   -0.69667E-01   -0.68842E-01  8160   0.162E+00    0.789E-01
DAV:   3    -0.632777144469E+03   -0.22685E-01   -0.32420E-01 11680   0.163E+00    0.118E+00
DAV:   4    -0.632749779390E+03    0.27365E-01   -0.17264E-01 10880   0.115E+00    0.446E-01
DAV:   5    -0.632749895897E+03   -0.11651E-03   -0.34828E-02 11080   0.723E-01    0.400E-01
DAV:   6    -0.632745988550E+03    0.39073E-02   -0.21502E-02 10880   0.572E-01    0.207E-01
DAV:   7    -0.632746163984E+03   -0.17543E-03   -0.69484E-03 10280   0.309E-01    0.233E-01
DAV:   8    -0.632745438310E+03    0.72567E-03   -0.45109E-03 10160   0.278E-01    0.887E-02
DAV:   9    -0.632745558283E+03   -0.11997E-03   -0.20412E-03 10560   0.165E-01    0.102E-01
DAV:  10    -0.632745437612E+03    0.12067E-03   -0.89808E-04 10160   0.117E-01    0.453E-02
DAV:  11    -0.632745424453E+03    0.13159E-04   -0.29750E-04 11080   0.591E-02    0.249E-02
DAV:  12    -0.632745425185E+03   -0.73182E-06   -0.95840E-05  8880   0.392E-02
  27 F= -.63274543E+03 E0= -.63268872E+03  d E =-.165370E-02
 trial-energy change:   -0.001654  1 .order   -0.001460   -0.002766   -0.000153
 step:   1.7291(harm=  1.7599)  dis= 0.00815  next Energy=  -632.745428 (dE=-0.166E-02)
 bond charge predicted
       N       E                     dE             d eps       ncg     rms          rms(c)
DAV:   1    -0.632745322931E+03    0.10152E-03   -0.38199E-03  8640   0.264E-01    0.205E-02
DAV:   2    -0.632745492929E+03   -0.17000E-03   -0.13611E-03  8720   0.857E-02    0.578E-02
DAV:   3    -0.632745466395E+03    0.26535E-04   -0.77469E-04 11240   0.849E-02    0.414E-02
DAV:   4    -0.632745436268E+03    0.30126E-04   -0.20156E-04  7640   0.453E-02    0.183E-02
DAV:   5    -0.632745435601E+03    0.66793E-06   -0.40700E-05  5760   0.264E-02    0.150E-02
DAV:   6    -0.632745431948E+03    0.36530E-05   -0.32308E-05  4880   0.244E-02
  28 F= -.63274543E+03 E0= -.63268873E+03  d E =-.166046E-02
 curvature:  -1.98 expect dE=-0.210E-02 dE for cont linesearch -0.190E-04
 trial: gam= 0.38511 g(F)=  0.106E-02 g(S)=  0.000E+00 ort = 0.200E-03 (trialstep = 0.168E+01)
 search vector abs. value=  0.183E-02
 bond charge predicted
       N       E                     dE             d eps       ncg     rms          rms(c)
DAV:   1    -0.632722396621E+03    0.23039E-01   -0.10802E+00  8400   0.405E+00    0.306E-01
DAV:   2    -0.632748145547E+03   -0.25749E-01   -0.26631E-01  7680   0.968E-01    0.381E-01
DAV:   3    -0.632762130594E+03   -0.13985E-01   -0.11493E-01 11720   0.102E+00    0.817E-01
DAV:   4    -0.632748862608E+03    0.13268E-01   -0.84870E-02 10680   0.790E-01    0.318E-01
DAV:   5    -0.632748178898E+03    0.68371E-03   -0.18662E-02 11280   0.504E-01    0.256E-01
DAV:   6    -0.632746682869E+03    0.14960E-02   -0.76740E-03 11000   0.345E-01    0.133E-01
DAV:   7    -0.632746785412E+03   -0.10254E-03   -0.27165E-03 10280   0.196E-01    0.152E-01
DAV:   8    -0.632746490284E+03    0.29513E-03   -0.21096E-03 10120   0.191E-01    0.558E-02
DAV:   9    -0.632746548556E+03   -0.58272E-04   -0.85575E-04 10240   0.107E-01    0.699E-02
DAV:  10    -0.632746484466E+03    0.64090E-04   -0.37913E-04 10120   0.755E-02    0.247E-02
DAV:  11    -0.632746484764E+03   -0.29808E-06   -0.11490E-04  9400   0.368E-02    0.201E-02
DAV:  12    -0.632746481552E+03    0.32122E-05   -0.42944E-05  6760   0.284E-02
  29 F= -.63274648E+03 E0= -.63268996E+03  d E =-.104960E-02
 trial-energy change:   -0.001050  1 .order   -0.001005   -0.001911   -0.000100
 step:   1.7559(harm=  1.7683)  dis= 0.00493  next Energy=  -632.746484 (dE=-0.105E-02)
 bond charge predicted
       N       E                     dE             d eps       ncg     rms          rms(c)
DAV:   1    -0.632746427194E+03    0.57570E-04   -0.25504E-03  8640   0.197E-01    0.159E-02
DAV:   2    -0.632746514546E+03   -0.87352E-04   -0.71996E-04  8280   0.637E-02    0.376E-02
DAV:   3    -0.632746509978E+03    0.45677E-05   -0.38929E-04  9440   0.658E-02    0.324E-02
DAV:   4    -0.632746500660E+03    0.93184E-05   -0.18209E-04  6720   0.405E-02    0.228E-02
DAV:   5    -0.632746491677E+03    0.89826E-05   -0.83464E-05  5720   0.357E-02    0.144E-02
DAV:   6    -0.632746487202E+03    0.44751E-05   -0.17392E-05  4840   0.182E-02
  30 F= -.63274649E+03 E0= -.63268998E+03  d E =-.105525E-02
 curvature:  -1.40 expect dE=-0.535E-03 dE for cont linesearch -0.781E-05
 ZBRENT: increasing intervall
 opt :   1.9160  next Energy=  -632.746510 (dE=-0.108E-02)
 bond charge predicted
       N       E                     dE             d eps       ncg     rms          rms(c)
DAV:   1    -0.632746272211E+03    0.21947E-03   -0.97250E-03  8440   0.384E-01    0.295E-02
DAV:   2    -0.632746517697E+03   -0.24549E-03   -0.24382E-03  8160   0.972E-02    0.428E-02
DAV:   3    -0.632746609470E+03   -0.91772E-04   -0.91255E-04 11520   0.991E-02    0.695E-02
DAV:   4    -0.632746519515E+03    0.89954E-04   -0.67918E-04  9160   0.759E-02    0.342E-02
DAV:   5    -0.632746517573E+03    0.19417E-05   -0.22986E-04  6960   0.551E-02    0.308E-02
DAV:   6    -0.632746493741E+03    0.23833E-04   -0.92474E-05  6360   0.390E-02    0.132E-02
DAV:   7    -0.632746495678E+03   -0.19371E-05   -0.29365E-05  6480   0.200E-02
  31 F= -.63274650E+03 E0= -.63269000E+03  d E =-.106373E-02
 curvature:  -4.09 expect dE=-0.198E-02 dE for cont linesearch -0.581E-05
 trial: gam= 0.53334 g(F)=  0.483E-03 g(S)=  0.000E+00 ort = 0.510E-04 (trialstep = 0.172E+01)
 search vector abs. value=  0.106E-02
 bond charge predicted
       N       E                     dE             d eps       ncg     rms          rms(c)
DAV:   1    -0.632731607296E+03    0.14886E-01   -0.63281E-01  8400   0.330E+00    0.236E-01
DAV:   2    -0.632747958210E+03   -0.16351E-01   -0.17166E-01  7840   0.776E-01    0.284E-01
DAV:   3    -0.632757527892E+03   -0.95697E-02   -0.74164E-02 11960   0.806E-01    0.671E-01
DAV:   4    -0.632747805188E+03    0.97227E-02   -0.49810E-02 11440   0.611E-01    0.192E-01
DAV:   5    -0.632747927535E+03   -0.12235E-03   -0.75831E-03 10920   0.329E-01    0.181E-01
DAV:   6    -0.632747193372E+03    0.73416E-03   -0.42927E-03 10800   0.256E-01    0.996E-02
DAV:   7    -0.632747247657E+03   -0.54285E-04   -0.15344E-03 10400   0.147E-01    0.111E-01
DAV:   8    -0.632747085174E+03    0.16248E-03   -0.10342E-03 10040   0.136E-01    0.418E-02
DAV:   9    -0.632747114254E+03   -0.29080E-04   -0.42258E-04 10280   0.799E-02    0.502E-02
DAV:  10    -0.632747078517E+03    0.35737E-04   -0.18609E-04  9920   0.567E-02    0.183E-02
DAV:  11    -0.632747078313E+03    0.20377E-06   -0.56983E-05  7640   0.271E-02
  32 F= -.63274708E+03 E0= -.63269079E+03  d E =-.582636E-03
 trial-energy change:   -0.000583  1 .order   -0.000657   -0.000880   -0.000434
 step:   3.4034(harm=  3.4034)  dis= 0.00723  next Energy=  -632.747364 (dE=-0.868E-03)
 bond charge predicted
       N       E                     dE             d eps       ncg     rms          rms(c)
DAV:   1    -0.632732474101E+03    0.14604E-01   -0.60283E-01  8400   0.323E+00    0.231E-01
DAV:   2    -0.632748067717E+03   -0.15594E-01   -0.16368E-01  8000   0.761E-01    0.280E-01
DAV:   3    -0.632757306013E+03   -0.92383E-02   -0.70298E-02 11880   0.791E-01    0.659E-01
DAV:   4    -0.632747960869E+03    0.93451E-02   -0.48115E-02 11520   0.606E-01    0.196E-01
DAV:   5    -0.632748077932E+03   -0.11706E-03   -0.75908E-03 10840   0.328E-01    0.181E-01
DAV:   6    -0.632747318731E+03    0.75920E-03   -0.43159E-03 10760   0.256E-01    0.971E-02
DAV:   7    -0.632747375512E+03   -0.56782E-04   -0.15402E-03 10280   0.143E-01    0.109E-01
DAV:   8    -0.632747215523E+03    0.15999E-03   -0.10014E-03 10080   0.132E-01    0.397E-02
DAV:   9    -0.632747248161E+03   -0.32638E-04   -0.40038E-04 10280   0.770E-02    0.505E-02
DAV:  10    -0.632747211249E+03    0.36911E-04   -0.18416E-04 10000   0.563E-02    0.169E-02
DAV:  11    -0.632747212054E+03   -0.80439E-06   -0.54478E-05  7720   0.263E-02
  33 F= -.63274721E+03 E0= -.63269112E+03  d E =-.716376E-03
 curvature:  -3.53 expect dE=-0.137E-02 dE for cont linesearch -0.188E-06
 trial: gam= 0.75326 g(F)=  0.387E-03 g(S)=  0.000E+00 ort =-0.750E-05 (trialstep = 0.206E+01)
 search vector abs. value=  0.976E-03
 bond charge predicted
       N       E                     dE             d eps       ncg     rms          rms(c)
DAV:   1    -0.632726104541E+03    0.21107E-01   -0.83139E-01  8400   0.381E+00    0.282E-01
DAV:   2    -0.632747957508E+03   -0.21853E-01   -0.23502E-01  7680   0.876E-01    0.276E-01
DAV:   3    -0.632765252500E+03   -0.17295E-01   -0.10517E-01 11880   0.936E-01    0.877E-01
DAV:   4    -0.632747830318E+03    0.17422E-01   -0.78301E-02 11680   0.753E-01    0.177E-01
DAV:   5    -0.632748138829E+03   -0.30851E-03   -0.59257E-03 11080   0.279E-01    0.172E-01
DAV:   6    -0.632747844151E+03    0.29468E-03   -0.57926E-03 10880   0.299E-01    0.144E-01
DAV:   7    -0.632747666624E+03    0.17753E-03   -0.25589E-03 10480   0.205E-01    0.122E-01
DAV:   8    -0.632747470093E+03    0.19653E-03   -0.13849E-03 10120   0.150E-01    0.455E-02
DAV:   9    -0.632747513437E+03   -0.43344E-04   -0.55868E-04 10320   0.860E-02    0.563E-02
DAV:  10    -0.632747468076E+03    0.45361E-04   -0.24788E-04 10280   0.644E-02    0.199E-02
DAV:  11    -0.632747468329E+03   -0.25256E-06   -0.74607E-05  7800   0.326E-02
  34 F= -.63274747E+03 E0= -.63269160E+03  d E =-.256275E-03
 trial-energy change:   -0.000256  1 .order   -0.000330   -0.000785    0.000124
 step:   1.6054(harm=  1.7783)  dis= 0.00381  next Energy=  -632.747483 (dE=-0.271E-03)
 bond charge predicted
       N       E                     dE             d eps       ncg     rms          rms(c)
DAV:   1    -0.632746463966E+03    0.10041E-02   -0.40164E-02  8400   0.836E-01    0.632E-02
DAV:   2    -0.632747514297E+03   -0.10503E-02   -0.11249E-02  8160   0.197E-01    0.634E-02
DAV:   3    -0.632747844656E+03   -0.33036E-03   -0.21728E-03 11160   0.161E-01    0.123E-01
DAV:   4    -0.632747571113E+03    0.27354E-03   -0.23009E-03 10800   0.139E-01    0.643E-02
DAV:   5    -0.632747516507E+03    0.54606E-04   -0.45293E-04  9720   0.716E-02    0.353E-02
DAV:   6    -0.632747512513E+03    0.39945E-05   -0.25783E-04  7680   0.643E-02    0.326E-02
DAV:   7    -0.632747500524E+03    0.11989E-04   -0.14134E-04  8120   0.470E-02    0.288E-02
DAV:   8    -0.632747491609E+03    0.89154E-05   -0.82751E-05  9000   0.375E-02
  35 F= -.63274749E+03 E0= -.63269157E+03  d E =-.279555E-03
 curvature:  -1.42 expect dE=-0.341E-03 dE for cont linesearch -0.149E-04
 ZBRENT: interpolating
 opt :   1.2688  next Energy=  -632.747509 (dE=-0.297E-03)
 bond charge predicted
       N       E                     dE             d eps       ncg     rms          rms(c)
DAV:   1    -0.632746917196E+03    0.58333E-03   -0.21807E-02  8400   0.620E-01    0.480E-02
DAV:   2    -0.632747488329E+03   -0.57113E-03   -0.61872E-03  7840   0.151E-01    0.493E-02
DAV:   3    -0.632747687089E+03   -0.19876E-03   -0.12949E-03 11600   0.134E-01    0.897E-02
DAV:   4    -0.632747523382E+03    0.16371E-03   -0.12512E-03  9760   0.113E-01    0.487E-02
DAV:   5    -0.632747524097E+03   -0.71574E-06   -0.46711E-04  7760   0.683E-02    0.444E-02
DAV:   6    -0.632747480404E+03    0.43693E-04   -0.23002E-04  7120   0.567E-02    0.213E-02
DAV:   7    -0.632747481501E+03   -0.10963E-05   -0.66559E-05  7560   0.298E-02
  36 F= -.63274748E+03 E0= -.63269151E+03  d E =-.269447E-03
 curvature:  -1.63 expect dE=-0.291E-03 dE for cont linesearch -0.299E-08
 trial: gam= 0.20892 g(F)=  0.179E-03 g(S)=  0.000E+00 ort = 0.134E-05 (trialstep = 0.190E+01)
 search vector abs. value=  0.222E-03
 bond charge predicted
       N       E                     dE             d eps       ncg     rms          rms(c)
DAV:   1    -0.632743689727E+03    0.37907E-02   -0.16775E-01  8400   0.167E+00    0.126E-01
DAV:   2    -0.632747863799E+03   -0.41741E-02   -0.44460E-02  7880   0.406E-01    0.147E-01
DAV:   3    -0.632748856136E+03   -0.99234E-03   -0.86870E-03 10840   0.314E-01    0.228E-01
DAV:   4    -0.632748043180E+03    0.81296E-03   -0.86080E-03 11320   0.267E-01    0.125E-01
DAV:   5    -0.632747734594E+03    0.30859E-03   -0.14231E-03 11360   0.131E-01    0.568E-02
DAV:   6    -0.632747775372E+03   -0.40778E-04   -0.55925E-04 10120   0.919E-02    0.652E-02
DAV:   7    -0.632747842480E+03   -0.67108E-04   -0.10571E-03  9880   0.130E-01    0.771E-02
DAV:   8    -0.632747689811E+03    0.15267E-03   -0.58310E-04  9720   0.101E-01    0.266E-02
DAV:   9    -0.632747696777E+03   -0.69658E-05   -0.17673E-04  9360   0.471E-02    0.273E-02
DAV:  10    -0.632747689536E+03    0.72410E-05   -0.71152E-05  8600   0.336E-02
  37 F= -.63274769E+03 E0= -.63269170E+03  d E =-.208035E-03
 trial-energy change:   -0.000208  1 .order   -0.000232   -0.000341   -0.000123
 step:   2.9659(harm=  2.9659)  dis= 0.00318  next Energy=  -632.747748 (dE=-0.266E-03)
 bond charge predicted
       N       E                     dE             d eps       ncg     rms          rms(c)
DAV:   1    -0.632746437733E+03    0.12590E-02   -0.52229E-02  8400   0.933E-01    0.727E-02
DAV:   2    -0.632747761740E+03   -0.13240E-02   -0.14076E-02  8240   0.234E-01    0.930E-02
DAV:   3    -0.632748597285E+03   -0.83554E-03   -0.58745E-03 11440   0.234E-01    0.200E-01
DAV:   4    -0.632747752318E+03    0.84497E-03   -0.46440E-03 10840   0.200E-01    0.593E-02
DAV:   5    -0.632747726364E+03    0.25954E-04   -0.48152E-04 10560   0.832E-02    0.451E-02
DAV:   6    -0.632747712747E+03    0.13618E-04   -0.40754E-04 10040   0.802E-02    0.382E-02
DAV:   7    -0.632747694378E+03    0.18368E-04   -0.19707E-04  9440   0.563E-02    0.320E-02
DAV:   8    -0.632747681470E+03    0.12908E-04   -0.89153E-05  8880   0.397E-02    0.154E-02
DAV:   9    -0.632747682547E+03   -0.10767E-05   -0.45211E-05  7080   0.266E-02
  38 F= -.63274768E+03 E0= -.63269169E+03  d E =-.201047E-03
 curvature:  -1.84 expect dE=-0.337E-03 dE for cont linesearch -0.577E-06
 trial: gam= 1.20793 g(F)=  0.183E-03 g(S)=  0.000E+00 ort =-0.836E-05 (trialstep = 0.965E+00)
 search vector abs. value=  0.488E-03
 bond charge predicted
       N       E                     dE             d eps       ncg     rms          rms(c)
DAV:   1    -0.632745317540E+03    0.23639E-02   -0.88666E-02  8400   0.131E+00    0.972E-02
DAV:   2    -0.632747832908E+03   -0.25154E-02   -0.27008E-02  7760   0.315E-01    0.108E-01
DAV:   3    -0.632748299898E+03   -0.46699E-03   -0.40473E-03 11360   0.237E-01    0.156E-01
DAV:   4    -0.632748029611E+03    0.27029E-03   -0.47396E-03 10920   0.199E-01    0.112E-01
DAV:   5    -0.632747773906E+03    0.25570E-03   -0.12136E-03 11200   0.110E-01    0.423E-02
DAV:   6    -0.632747807097E+03   -0.33191E-04   -0.34299E-04  9960   0.712E-02    0.508E-02
DAV:   7    -0.632747818613E+03   -0.11516E-04   -0.56166E-04  9480   0.958E-02    0.536E-02
DAV:   8    -0.632747751957E+03    0.66656E-04   -0.27871E-04  9640   0.692E-02    0.202E-02
DAV:   9    -0.632747754407E+03   -0.24507E-05   -0.92236E-05  9280   0.338E-02
  39 F= -.63274775E+03 E0= -.63269178E+03  d E =-.718602E-04
 trial-energy change:   -0.000072  1 .order   -0.000129   -0.000167   -0.000091
 step:   2.1285(harm=  2.1285)  dis= 0.00234  next Energy=  -632.747867 (dE=-0.184E-03)
 bond charge predicted
       N       E                     dE             d eps       ncg     rms          rms(c)
DAV:   1    -0.632744165919E+03    0.35860E-02   -0.12914E-01  8400   0.158E+00    0.118E-01
DAV:   2    -0.632747822829E+03   -0.36569E-02   -0.39390E-02  7680   0.382E-01    0.130E-01
DAV:   3    -0.632748340550E+03   -0.51772E-03   -0.52032E-03 11400   0.276E-01    0.169E-01
DAV:   4    -0.632748180787E+03    0.15976E-03   -0.63610E-03 10960   0.230E-01    0.145E-01
DAV:   5    -0.632747741466E+03    0.43932E-03   -0.20631E-03 11280   0.141E-01    0.513E-02
DAV:   6    -0.632747749724E+03   -0.82581E-05   -0.38152E-04 10120   0.708E-02    0.526E-02
DAV:   7    -0.632747926675E+03   -0.17695E-03   -0.96179E-04  9800   0.127E-01    0.844E-02
DAV:   8    -0.632747709607E+03    0.21707E-03   -0.80240E-04  9840   0.114E-01    0.239E-02
DAV:   9    -0.632747715468E+03   -0.58617E-05   -0.15162E-04  9280   0.418E-02    0.247E-02
DAV:  10    -0.632747709359E+03    0.61097E-05   -0.54121E-05  7160   0.291E-02
  40 F= -.63274771E+03 E0= -.63269178E+03  d E =-.268116E-04
 curvature:  -3.00 expect dE=-0.552E-03 dE for cont linesearch -0.132E-04
 ZBRENT: interpolating
 opt :   1.7457  next Energy=  -632.747718 (dE=-0.357E-04)
 bond charge predicted
       N       E                     dE             d eps       ncg     rms          rms(c)
DAV:   1    -0.632747345960E+03    0.36951E-03   -0.14120E-02  8400   0.520E-01    0.373E-02
DAV:   2    -0.632747754153E+03   -0.40819E-03   -0.42499E-03  8080   0.123E-01    0.422E-02
DAV:   3    -0.632747887229E+03   -0.13308E-03   -0.98297E-04 11000   0.102E-01    0.807E-02
DAV:   4    -0.632747769581E+03    0.11765E-03   -0.94102E-04  9600   0.894E-02    0.384E-02
DAV:   5    -0.632747739536E+03    0.30044E-04   -0.12111E-04  7280   0.401E-02    0.160E-02
DAV:   6    -0.632747760572E+03   -0.21036E-04   -0.10893E-04  6520   0.421E-02    0.291E-02
DAV:   7    -0.632747740462E+03    0.20110E-04   -0.10977E-04  6640   0.439E-02    0.168E-02
DAV:   8    -0.632747736018E+03    0.44438E-05   -0.26387E-05  6000   0.231E-02
  41 F= -.63274774E+03 E0= -.63269179E+03  d E =-.534712E-04
 curvature:  -2.01 expect dE=-0.408E-03 dE for cont linesearch -0.556E-04
 ZBRENT: interpolating
 opt :   1.3155  next Energy=  -632.747771 (dE=-0.885E-04)
 bond charge predicted
       N       E                     dE             d eps       ncg     rms          rms(c)
DAV:   1    -0.632747269477E+03    0.47099E-03   -0.17459E-02  8400   0.582E-01    0.443E-02
DAV:   2    -0.632747779345E+03   -0.50987E-03   -0.53602E-03  7920   0.148E-01    0.563E-02
DAV:   3    -0.632747783767E+03   -0.44221E-05   -0.56518E-04 10520   0.104E-01    0.396E-02
DAV:   4    -0.632747781419E+03    0.23475E-05   -0.25673E-04  9760   0.628E-02    0.353E-02
DAV:   5    -0.632747762091E+03    0.19328E-04   -0.21274E-04  6920   0.509E-02    0.259E-02
DAV:   6    -0.632747775142E+03   -0.13051E-04   -0.17017E-04  6920   0.398E-02    0.326E-02
DAV:   7    -0.632747755496E+03    0.19647E-04   -0.13540E-04  6440   0.414E-02    0.189E-02
DAV:   8    -0.632747749775E+03    0.57209E-05   -0.30762E-05  6000   0.243E-02
  42 F= -.63274775E+03 E0= -.63269180E+03  d E =-.672276E-04
 curvature:  -0.60 expect dE=-0.102E-03 dE for cont linesearch -0.791E-05
 ZBRENT: interpolating
 opt :   1.1548  next Energy=  -632.747756 (dE=-0.737E-04)
 bond charge predicted
       N       E                     dE             d eps       ncg     rms          rms(c)
DAV:   1    -0.632747685087E+03    0.70409E-04   -0.23565E-03  8440   0.216E-01    0.182E-02
DAV:   2    -0.632747760360E+03   -0.75273E-04   -0.75283E-04  7880   0.638E-02    0.296E-02
DAV:   3    -0.632747764358E+03   -0.39984E-05   -0.17216E-04  9360   0.562E-02    0.230E-02
DAV:   4    -0.632747759827E+03    0.45317E-05   -0.13065E-04  6360   0.432E-02    0.205E-02
DAV:   5    -0.632747758666E+03    0.11605E-05   -0.81058E-05  5760   0.282E-02    0.193E-02
DAV:   6    -0.632747750845E+03    0.78208E-05   -0.47319E-05  4840   0.233E-02
  43 F= -.63274775E+03 E0= -.63269178E+03  d E =-.682982E-04
 curvature:  -0.49 expect dE=-0.688E-04 dE for cont linesearch -0.105E-06
 trial: gam= 0.21858 g(F)=  0.141E-03 g(S)=  0.000E+00 ort =-0.102E-04 (trialstep = 0.100E+01)
 search vector abs. value=  0.159E-03
 bond charge predicted
       N       E                     dE             d eps       ncg     rms          rms(c)
DAV:   1    -0.632747038514E+03    0.72015E-03   -0.32981E-02  8400   0.741E-01    0.586E-02
DAV:   2    -0.632747894526E+03   -0.85601E-03   -0.91067E-03  7920   0.175E-01    0.642E-02
DAV:   3    -0.632748530914E+03   -0.63639E-03   -0.41124E-03 11800   0.193E-01    0.168E-01
DAV:   4    -0.632747894523E+03    0.63639E-03   -0.30407E-03  9800   0.159E-01    0.455E-02
DAV:   5    -0.632747919045E+03   -0.24522E-04   -0.52149E-04  9600   0.855E-02    0.480E-02
DAV:   6    -0.632747862586E+03    0.56459E-04   -0.32450E-04  9400   0.705E-02    0.260E-02
DAV:   7    -0.632747866676E+03   -0.40904E-05   -0.11710E-04  9120   0.398E-02    0.288E-02
DAV:   8    -0.632747854634E+03    0.12042E-04   -0.72370E-05  7800   0.353E-02    0.994E-03
DAV:   9    -0.632747856130E+03   -0.14957E-05   -0.23005E-05  6000   0.189E-02
  44 F= -.63274786E+03 E0= -.63269193E+03  d E =-.105284E-03
 trial-energy change:   -0.000105  1 .order   -0.000112   -0.000139   -0.000085
 step:   2.6115(harm=  2.6115)  dis= 0.00300  next Energy=  -632.747931 (dE=-0.181E-03)
 bond charge predicted
       N       E                     dE             d eps       ncg     rms          rms(c)
DAV:   1    -0.632745760028E+03    0.20946E-02   -0.84436E-02  8400   0.119E+00    0.954E-02
DAV:   2    -0.632747926721E+03   -0.21667E-02   -0.23338E-02  7680   0.282E-01    0.100E-01
DAV:   3    -0.632749575656E+03   -0.16489E-02   -0.98010E-03 11920   0.295E-01    0.271E-01
DAV:   4    -0.632747918012E+03    0.16576E-02   -0.78763E-03 10560   0.257E-01    0.654E-02
DAV:   5    -0.632747871582E+03    0.46430E-04   -0.53238E-04 10200   0.760E-02    0.432E-02
DAV:   6    -0.632747903420E+03   -0.31838E-04   -0.37309E-04 10000   0.734E-02    0.522E-02
DAV:   7    -0.632747978975E+03   -0.75555E-04   -0.75576E-04  9520   0.111E-01    0.662E-02
DAV:   8    -0.632747853504E+03    0.12547E-03   -0.46735E-04  9640   0.875E-02    0.179E-02
DAV:   9    -0.632747858952E+03   -0.54473E-05   -0.94451E-05  8800   0.333E-02
  45 F= -.63274786E+03 E0= -.63269198E+03  d E =-.108106E-03
 curvature:  -1.50 expect dE=-0.342E-03 dE for cont linesearch -0.533E-05
 trial: gam= 1.77893 g(F)=  0.227E-03 g(S)=  0.000E+00 ort =-0.238E-04 (trialstep = 0.326E+00)
 search vector abs. value=  0.647E-03
 bond charge predicted
       N       E                     dE             d eps       ncg     rms          rms(c)
DAV:   1    -0.632747520737E+03    0.33277E-03   -0.13482E-02  8400   0.505E-01    0.386E-02
DAV:   2    -0.632747897216E+03   -0.37648E-03   -0.40961E-03  8200   0.127E-01    0.476E-02
DAV:   3    -0.632748157730E+03   -0.26051E-03   -0.17071E-03 11320   0.129E-01    0.108E-01
DAV:   4    -0.632747895601E+03    0.26213E-03   -0.13592E-03  9760   0.110E-01    0.302E-02
DAV:   5    -0.632747907352E+03   -0.11751E-04   -0.22586E-04  7280   0.571E-02    0.328E-02
DAV:   6    -0.632747881366E+03    0.25986E-04   -0.14890E-04  6880   0.494E-02    0.171E-02
DAV:   7    -0.632747879291E+03    0.20746E-05   -0.35132E-05  6120   0.237E-02
  46 F= -.63274788E+03 E0= -.63269207E+03  d E =-.203395E-04
 trial-energy change:   -0.000020  1 .order   -0.000046   -0.000060   -0.000032
 step:   0.6904(harm=  0.6904)  dis= 0.00086  next Energy=  -632.747923 (dE=-0.639E-04)
 bond charge predicted
       N       E                     dE             d eps       ncg     rms          rms(c)
DAV:   1    -0.632747444028E+03    0.43734E-03   -0.16700E-02  8400   0.562E-01    0.415E-02
DAV:   2    -0.632747956690E+03   -0.51266E-03   -0.50999E-03  8360   0.148E-01    0.703E-02
DAV:   3    -0.632748178880E+03   -0.22219E-03   -0.23461E-03 11160   0.147E-01    0.112E-01
DAV:   4    -0.632747907971E+03    0.27091E-03   -0.13888E-03 10080   0.112E-01    0.326E-02
DAV:   5    -0.632747895729E+03    0.12242E-04   -0.11834E-04  9160   0.357E-02    0.202E-02
DAV:   6    -0.632747897705E+03   -0.19757E-05   -0.57731E-05  6880   0.299E-02
  47 F= -.63274790E+03 E0= -.63269209E+03  d E =-.387531E-04
 curvature:  -1.21 expect dE=-0.243E-03 dE for cont linesearch -0.290E-05
 trial: gam= 0.07605 g(F)=  0.201E-03 g(S)=  0.000E+00 ort = 0.394E-04 (trialstep = 0.399E+00)
 search vector abs. value=  0.211E-03
 bond charge predicted
       N       E                     dE             d eps       ncg     rms          rms(c)
DAV:   1    -0.632747863368E+03    0.32361E-04   -0.81330E-03  8240   0.266E-01    0.424E-02
DAV:   2    -0.632752671763E+03   -0.48084E-02   -0.16381E-02 10160   0.514E-01    0.369E-01
DAV:   3    -0.632747942189E+03    0.47296E-02   -0.14437E-02 11040   0.464E-01    0.406E-02
DAV:   4    -0.632747978745E+03   -0.36556E-04   -0.69933E-04 10280   0.693E-02    0.387E-02
DAV:   5    -0.632748035107E+03   -0.56362E-04   -0.66691E-04  9760   0.740E-02    0.597E-02
DAV:   6    -0.632747959423E+03    0.75683E-04   -0.35720E-04  8320   0.578E-02    0.186E-02
DAV:   7    -0.632747956001E+03    0.34221E-05   -0.38201E-05  6800   0.233E-02
  48 F= -.63274796E+03 E0= -.63269216E+03  d E =-.582967E-04
 trial-energy change:   -0.000058  1 .order   -0.000066   -0.000082   -0.000050
 step:   1.0380(harm=  1.0380)  dis= 0.00164  next Energy=  -632.748004 (dE=-0.106E-03)
 bond charge predicted
       N       E                     dE             d eps       ncg     rms          rms(c)
DAV:   1    -0.632747711472E+03    0.24795E-03   -0.20400E-02  8320   0.410E-01    0.446E-02
DAV:   2    -0.632748011130E+03   -0.29966E-03   -0.31482E-03  8400   0.102E-01    0.461E-02
DAV:   3    -0.632748173995E+03   -0.16286E-03   -0.11154E-03 10920   0.104E-01    0.892E-02
DAV:   4    -0.632748029534E+03    0.14446E-03   -0.11056E-03  9680   0.966E-02    0.424E-02
DAV:   5    -0.632748003074E+03    0.26460E-04   -0.16933E-04  8240   0.456E-02    0.235E-02
DAV:   6    -0.632748035822E+03   -0.32748E-04   -0.21904E-04  7320   0.592E-02    0.369E-02
DAV:   7    -0.632748006420E+03    0.29401E-04   -0.21359E-04  7880   0.576E-02    0.265E-02
DAV:   8    -0.632747995941E+03    0.10479E-04   -0.61479E-05  7480   0.307E-02    0.866E-03
DAV:   9    -0.632747996360E+03   -0.41856E-06   -0.16830E-05  5640   0.162E-02
  49 F= -.63274800E+03 E0= -.63269222E+03  d E =-.986549E-04
 curvature:  -0.54 expect dE=-0.281E-04 dE for cont linesearch -0.138E-05
 ZBRENT: extrapolating
 opt :   1.1830  next Energy=  -632.747998 (dE=-0.100E-03)
 bond charge predicted
       N       E                     dE             d eps       ncg     rms          rms(c)
DAV:   1    -0.632747979833E+03    0.16108E-04   -0.10646E-03  8440   0.954E-02    0.117E-02
DAV:   2    -0.632747997629E+03   -0.17796E-04   -0.18936E-04  8720   0.305E-02    0.165E-02
DAV:   3    -0.632747996563E+03    0.10657E-05   -0.39745E-05  7640   0.256E-02    0.102E-02
DAV:   4    -0.632748004383E+03   -0.78196E-05   -0.58611E-05  5120   0.228E-02    0.204E-02
DAV:   5    -0.632747995445E+03    0.89381E-05   -0.43500E-05  4640   0.202E-02    0.573E-03
DAV:   6    -0.632747995254E+03    0.19094E-06   -0.34187E-06  4320   0.817E-03
  50 F= -.63274800E+03 E0= -.63269221E+03  d E =-.975494E-04
 curvature:  -0.66 expect dE=-0.320E-04 dE for cont linesearch -0.314E-06
 ZBRENT: bracketing found
 ZBRENT: interpolating
 opt :   1.1393  next Energy=  -632.747995 (dE=-0.978E-04)
 bond charge predicted
       N       E                     dE             d eps       ncg     rms          rms(c)
DAV:   1    -0.632747996045E+03   -0.60047E-06   -0.10966E-04  8040   0.328E-02    0.816E-03
DAV:   2    -0.632748368131E+03   -0.37209E-03   -0.12582E-03  8680   0.141E-01    0.103E-01
DAV:   3    -0.632747994751E+03    0.37338E-03   -0.10997E-03  8600   0.128E-01    0.476E-03
DAV:   4    -0.632747996310E+03   -0.15590E-05   -0.20982E-05  6480   0.103E-02    0.662E-03
DAV:   5    -0.632747997157E+03   -0.84734E-06   -0.16101E-05  5040   0.122E-02    0.818E-03
DAV:   6    -0.632747995782E+03    0.13751E-05   -0.68323E-06  4520   0.870E-03
  51 F= -.63274800E+03 E0= -.63269222E+03  d E =-.980776E-04
 curvature:  -0.46 expect dE=-0.229E-04 dE for cont linesearch -0.865E-08
 trial: gam= 0.25847 g(F)=  0.497E-04 g(S)=  0.000E+00 ort =-0.199E-05 (trialstep = 0.547E+00)
 search vector abs. value=  0.628E-04
 bond charge predicted
       N       E                     dE             d eps       ncg     rms          rms(c)
DAV:   1    -0.632747917528E+03    0.79630E-04   -0.37581E-03  8440   0.266E-01    0.197E-02
DAV:   2    -0.632748022949E+03   -0.10542E-03   -0.11238E-03  7200   0.643E-02    0.241E-02
DAV:   3    -0.632748095398E+03   -0.72449E-04   -0.49932E-04  9840   0.667E-02    0.577E-02
DAV:   4    -0.632748020034E+03    0.75364E-04   -0.34497E-04  7240   0.553E-02    0.137E-02
DAV:   5    -0.632748021210E+03   -0.11761E-05   -0.34669E-05  5680   0.237E-02    0.133E-02
DAV:   6    -0.632748018850E+03    0.23599E-05   -0.33979E-05  5040   0.250E-02
  52 F= -.63274802E+03 E0= -.63269224E+03  d E =-.230676E-04
 ZBRENT: can't locate minimum, use default step
 trial-energy change:   -0.000023  1 .order   -0.000026   -0.000027   -0.000026
 step:   2.1882(harm= 12.1141)  dis= 0.00070  next Energy=  -632.748294 (dE=-0.298E-03)
 bond charge predicted
       N       E                     dE             d eps       ncg     rms          rms(c)
DAV:   1    -0.632747135776E+03    0.88543E-03   -0.33474E-02  8400   0.795E-01    0.571E-02
DAV:   2    -0.632748113987E+03   -0.97821E-03   -0.10136E-02  8000   0.192E-01    0.750E-02
DAV:   3    -0.632748615828E+03   -0.50184E-03   -0.39557E-03 11560   0.186E-01    0.156E-01
DAV:   4    -0.632748096404E+03    0.51942E-03   -0.26826E-03 11040   0.154E-01    0.514E-02
DAV:   5    -0.632748061668E+03    0.34737E-04   -0.25125E-04  9680   0.593E-02    0.301E-02
DAV:   6    -0.632748085699E+03   -0.24031E-04   -0.26505E-04  8000   0.653E-02    0.389E-02
DAV:   7    -0.632748056515E+03    0.29183E-04   -0.19709E-04  8600   0.560E-02    0.292E-02
DAV:   8    -0.632748046034E+03    0.10482E-04   -0.88751E-05  8840   0.362E-02    0.113E-02
DAV:   9    -0.632748047719E+03   -0.16855E-05   -0.29193E-05  6280   0.208E-02
  53 F= -.63274805E+03 E0= -.63269232E+03  d E =-.519370E-04
 curvature:  -2.04 expect dE=-0.816E-04 dE for cont linesearch -0.122E-04
 ZBRENT: increasing intervall
 opt :   5.4706  next Energy=  -632.748021 (dE=-0.249E-04)
 bond charge predicted
       N       E                     dE             d eps       ncg     rms          rms(c)
DAV:   1    -0.632744335841E+03    0.37102E-02   -0.13509E-01  8400   0.159E+00    0.117E-01
DAV:   2    -0.632748112384E+03   -0.37765E-02   -0.40413E-02  7760   0.383E-01    0.135E-01
DAV:   3    -0.632750646585E+03   -0.25342E-02   -0.16183E-02 11400   0.386E-01    0.335E-01
DAV:   4    -0.632748102002E+03    0.25446E-02   -0.12256E-02 11120   0.330E-01    0.890E-02
DAV:   5    -0.632748215870E+03   -0.11387E-03   -0.20520E-03 11240   0.168E-01    0.974E-02
DAV:   6    -0.632747991266E+03    0.22460E-03   -0.13746E-03 10760   0.143E-01    0.550E-02
DAV:   7    -0.632747996400E+03   -0.51341E-05   -0.45498E-04 10200   0.789E-02    0.569E-02
DAV:   8    -0.632747952805E+03    0.43594E-04   -0.29879E-04  9120   0.701E-02    0.233E-02
DAV:   9    -0.632747957388E+03   -0.45829E-05   -0.11635E-04  9320   0.395E-02    0.236E-02
DAV:  10    -0.632747951203E+03    0.61846E-05   -0.44836E-05  6760   0.284E-02
  54 F= -.63274795E+03 E0= -.63269231E+03  d E =0.445787E-04
 curvature:   4.52 expect dE= 0.101E-02 dE for cont linesearch  0.131E-03
 ZBRENT: bracketing found
 ZBRENT: interpolating
 opt :   3.2135  next Energy=  -632.748058 (dE=-0.619E-04)
 bond charge predicted
       N       E                     dE             d eps       ncg     rms          rms(c)
DAV:   1    -0.632746315369E+03    0.16420E-02   -0.64305E-02  8400   0.110E+00    0.793E-02
DAV:   2    -0.632748194552E+03   -0.18792E-02   -0.19382E-02  7840   0.266E-01    0.109E-01
DAV:   3    -0.632749144103E+03   -0.94955E-03   -0.80631E-03 11520   0.267E-01    0.218E-01
DAV:   4    -0.632748097778E+03    0.10463E-02   -0.48136E-03 10880   0.209E-01    0.557E-02
DAV:   5    -0.632748108391E+03   -0.10613E-04   -0.54344E-04 10640   0.887E-02    0.518E-02
DAV:   6    -0.632748080296E+03    0.28095E-04   -0.51971E-04  9920   0.908E-02    0.420E-02
DAV:   7    -0.632748064069E+03    0.16227E-04   -0.24385E-04  9560   0.622E-02    0.384E-02
DAV:   8    -0.632748043512E+03    0.20557E-04   -0.13478E-04  9120   0.471E-02    0.157E-02
DAV:   9    -0.632748045076E+03   -0.15636E-05   -0.50961E-05  7360   0.277E-02
  55 F= -.63274805E+03 E0= -.63269234E+03  d E =-.492937E-04
 curvature:  -0.34 expect dE=-0.343E-04 dE for cont linesearch -0.834E-05
 ZBRENT: interpolating
 opt :   2.5281  next Energy=  -632.748051 (dE=-0.552E-04)
 bond charge predicted
       N       E                     dE             d eps       ncg     rms          rms(c)
DAV:   1    -0.632747892573E+03    0.15094E-03   -0.57566E-03  8400   0.331E-01    0.259E-02
DAV:   2    -0.632748053798E+03   -0.16123E-03   -0.17532E-03  8000   0.841E-02    0.312E-02
DAV:   3    -0.632748141943E+03   -0.88145E-04   -0.58842E-04 10080   0.787E-02    0.645E-02
DAV:   4    -0.632748053134E+03    0.88808E-04   -0.50548E-04  8800   0.666E-02    0.197E-02
DAV:   5    -0.632748048043E+03    0.50917E-05   -0.43850E-05  6240   0.251E-02    0.128E-02
DAV:   6    -0.632748053709E+03   -0.56661E-05   -0.46702E-05  5360   0.290E-02
  56 F= -.63274805E+03 E0= -.63269234E+03  d E =-.579266E-04
 curvature:  -0.14 expect dE=-0.704E-05 dE for cont linesearch -0.617E-06
 ZBRENT: interpolating
 opt :   2.3697  next Energy=  -632.748055 (dE=-0.593E-04)
 bond charge predicted
       N       E                     dE             d eps       ncg     rms          rms(c)
DAV:   1    -0.632748037574E+03    0.10469E-04   -0.30533E-04  8680   0.803E-02    0.102E-02
DAV:   2    -0.632748098035E+03   -0.60461E-04   -0.25980E-04  9400   0.643E-02    0.423E-02
DAV:   3    -0.632748050329E+03    0.47706E-04   -0.23313E-04  7280   0.622E-02    0.161E-02
DAV:   4    -0.632748047978E+03    0.23518E-05   -0.42885E-05  5760   0.230E-02    0.117E-02
DAV:   5    -0.632748047250E+03    0.72723E-06   -0.28948E-05  4400   0.164E-02    0.907E-03
DAV:   6    -0.632748046376E+03    0.87421E-06   -0.10154E-05  4320   0.116E-02
  57 F= -.63274805E+03 E0= -.63269233E+03  d E =-.505939E-04
 curvature:  -0.29 expect dE=-0.123E-04 dE for cont linesearch -0.127E-06
 trial: gam= 0.65442 g(F)=  0.417E-04 g(S)=  0.000E+00 ort = 0.520E-05 (trialstep = 0.759E+00)
 search vector abs. value=  0.754E-04
 bond charge predicted
       N       E                     dE             d eps       ncg     rms          rms(c)
DAV:   1    -0.632747847740E+03    0.19951E-03   -0.87808E-03  8400   0.398E-01    0.298E-02
DAV:   2    -0.632748072254E+03   -0.22451E-03   -0.24419E-03  7680   0.899E-02    0.248E-02
DAV:   3    -0.632748200528E+03   -0.12827E-03   -0.65405E-04 10720   0.939E-02    0.678E-02
DAV:   4    -0.632748082785E+03    0.11774E-03   -0.58182E-04  8440   0.790E-02    0.269E-02
DAV:   5    -0.632748079626E+03    0.31589E-05   -0.14162E-04  6440   0.382E-02    0.225E-02
DAV:   6    -0.632748070479E+03    0.91478E-05   -0.63656E-05  6600   0.293E-02
  58 F= -.63274807E+03 E0= -.63269237E+03  d E =-.241025E-04
 ZBRENT: can't locate minimum, use default step
 trial-energy change:   -0.000024  1 .order   -0.000034   -0.000034   -0.000035
 step:   3.0364(harm=  3.0364)  dis= 0.00138  next Energy=  -632.748186 (dE=-0.140E-03)
 reached required accuracy - stopping structural energy minimisation
 writing wavefunctions
