 running on   20 total cores
 distrk:  each k-point on   20 cores,    1 groups
 distr:  one band on    1 cores,   20 groups
 using from now: INCAR     
 vasp.6.1.1 19Jun20 (build Jan 13 2022 18:23:11) complex                        
  
 POSCAR found type information on POSCAR O Ti
 POSCAR found :  2 types and      81 ions
 scaLAPACK will be used
 -----------------------------------------------------------------------------
|                                                                             |
|           W    W    AA    RRRRR   N    N  II  N    N   GGGG   !!!           |
|           W    W   A  A   R    R  NN   N  II  NN   N  G    G  !!!           |
|           W    W  A    A  R    R  N N  N  II  N N  N  G       !!!           |
|           W WW W  AAAAAA  RRRRR   N  N N  II  N  N N  G  GGG   !            |
|           WW  WW  A    A  R   R   N   NN  II  N   NN  G    G                |
|           W    W  A    A  R    R  N    N  II  N    N   GGGG   !!!           |
|                                                                             |
|     For optimal performance we recommend to set                             |
|       NCORE = 4 - approx SQRT(number of cores).                             |
|     NCORE specifies how many cores store one orbital (NPAR=cpu/NCORE).      |
|     This setting can greatly improve the performance of VASP for DFT.       |
|     The default, NCORE=1 might be grossly inefficient on modern             |
|     multi-core architectures or massively parallel machines. Do your        |
|     own testing!!!!                                                         |
|     Unfortunately you need to use the default for GW and RPA                |
|     calculations (for HF NCORE is supported but not extensively tested      |
|     yet).                                                                   |
|                                                                             |
 -----------------------------------------------------------------------------

 -----------------------------------------------------------------------------
|                                                                             |
|               ----> ADVICE to this user running VASP <----                  |
|                                                                             |
|     You have a (more or less) 'large supercell' and for larger cells it     |
|     might be more efficient to use real-space projection operators.         |
|     Therefore, try LREAL= Auto in the INCAR file.                           |
|     Mind: For very accurate calculation, you might also keep the            |
|     reciprocal projection scheme (i.e. LREAL=.FALSE.).                      |
|                                                                             |
 -----------------------------------------------------------------------------

 LDA part: xc-table for Pade appr. of Perdew
 POSCAR, INCAR and KPOINTS ok, starting setup
 FFT: planning ...
 WAVECAR not read
 WARNING: random wavefunctions but no delay for mixing, default for NELMDL
 entering main loop
       N       E                     dE             d eps       ncg     rms          rms(c)
DAV:   1     0.136740326460E+05    0.13674E+05   -0.40735E+05  9420   0.180E+03
DAV:   2     0.145836539904E+04   -0.12216E+05   -0.11977E+05  9280   0.612E+02
DAV:   3    -0.320140829112E+03   -0.17785E+04   -0.16876E+04 13700   0.206E+02
DAV:   4    -0.683851282584E+03   -0.36371E+03   -0.35634E+03 13800   0.721E+01
DAV:   5    -0.719018987391E+03   -0.35168E+02   -0.34878E+02 14600   0.207E+01    0.764E+01
DAV:   6    -0.638980454417E+03    0.80039E+02   -0.34126E+02 12140   0.441E+01    0.249E+01
DAV:   7    -0.138205122998E+04   -0.74307E+03   -0.31841E+03 13960   0.916E+01    0.167E+02
DAV:   8    -0.668774766961E+03    0.71328E+03   -0.34366E+03 13840   0.492E+01    0.803E+01
DAV:   9    -0.622287680398E+03    0.46487E+02   -0.10918E+03 13880   0.378E+01    0.191E+01
DAV:  10    -0.662894309594E+03   -0.40607E+02   -0.23257E+02 14440   0.308E+01    0.420E+01
DAV:  11    -0.636497207080E+03    0.26397E+02   -0.11366E+02 14460   0.212E+01    0.171E+01
DAV:  12    -0.635056164573E+03    0.14410E+01   -0.23704E+01 13240   0.960E+00    0.127E+01
DAV:  13    -0.635703554684E+03   -0.64739E+00   -0.86042E+00 12920   0.923E+00    0.119E+01
DAV:  14    -0.635867658444E+03   -0.16410E+00   -0.90184E+00 13540   0.103E+01    0.100E+01
DAV:  15    -0.635443515036E+03    0.42414E+00   -0.10317E+01 13420   0.107E+01    0.780E+00
DAV:  16    -0.634834645308E+03    0.60887E+00   -0.56938E+00 13040   0.738E+00    0.481E+00
DAV:  17    -0.634552539241E+03    0.28211E+00   -0.16897E+00 12980   0.422E+00    0.248E+00
DAV:  18    -0.634559037534E+03   -0.64983E-02   -0.49865E-01 13280   0.212E+00    0.201E+00
DAV:  19    -0.634537346327E+03    0.21691E-01   -0.22645E-01 12220   0.175E+00    0.128E+00
DAV:  20    -0.634533057757E+03    0.42886E-02   -0.13007E-01 12580   0.136E+00    0.981E-01
DAV:  21    -0.634519110356E+03    0.13947E-01   -0.67901E-02 12360   0.101E+00    0.407E-01
DAV:  22    -0.634517757761E+03    0.13526E-02   -0.20386E-02 14160   0.409E-01    0.284E-01
DAV:  23    -0.634517371073E+03    0.38669E-03   -0.76265E-03 12320   0.300E-01    0.207E-01
DAV:  24    -0.634517175563E+03    0.19551E-03   -0.37744E-03 12460   0.214E-01    0.174E-01
DAV:  25    -0.634517004779E+03    0.17078E-03   -0.20925E-03 12360   0.172E-01    0.132E-01
DAV:  26    -0.634516965623E+03    0.39155E-04   -0.11353E-03 12860   0.122E-01    0.888E-02
DAV:  27    -0.634516886756E+03    0.78868E-04   -0.66489E-04 12360   0.983E-02    0.415E-02
DAV:  28    -0.634516905892E+03   -0.19136E-04   -0.24947E-04 12380   0.499E-02    0.343E-02
DAV:  29    -0.634516898478E+03    0.74136E-05   -0.95822E-05 12020   0.364E-02
   1 F= -.63451690E+03 E0= -.63446727E+03  d E =-.992567E-01
 writing wavefunctions
