unknown system                          
           1
    26.627256    0.000000    0.000000
     0.000000    5.110600    0.000000
     0.000000    0.000000   11.062900
   O    Ti
     1    80
Direct configuration=     1
   0.49996367  0.70335376  0.52113780
   0.44455134  0.07146939  0.23142423
   0.39785626  0.56873954  0.30503812
   0.24949804  0.08082372  0.01524892
   0.34536935  0.07297448  0.37178026
   0.20023322  0.57672605  0.08405104
   0.29652010  0.58107059  0.44548985
   0.15083857  0.07681960  0.15785415
   0.10233880  0.57958775  0.22748285
   0.05441255  0.07362056  0.29522675
   0.55860154  0.93056348  0.47961400
   0.60388279  0.41404970  0.05286606
   0.75191502  0.91781951  0.26585330
   0.65284904  0.91711034  0.12267907
   0.79997570  0.41904841  0.33550216
   0.70221400  0.42147100  0.19607844
   0.84890891  0.92308529  0.40952972
   0.89821588  0.42028112  0.47874955
   0.94557593  0.92328596  0.04701111
   0.44142907  0.93072547  0.47894285
   0.39622737  0.41428122  0.05239938
   0.24813521  0.91816868  0.26491577
   0.34722511  0.91735792  0.12205492
   0.20017692  0.41939979  0.33464187
   0.29786309  0.42181860  0.19532908
   0.15117967  0.92383901  0.40843359
   0.10183348  0.42067034  0.47774432
   0.05458890  0.92288546  0.04547727
   0.55549155  0.07102174  0.23203374
   0.60224833  0.56874798  0.30555061
   0.75055975  0.08044388  0.01605959
   0.65466186  0.07249165  0.37235822
   0.79976432  0.57625906  0.08496066
   0.70358669  0.58055243  0.44621624
   0.84913611  0.07606737  0.15890372
   0.89786136  0.57867473  0.22847501
   0.94544319  0.07468601  0.29674524
   0.49998536  0.55735913  0.16225479
   0.50006426  0.42189885  0.40302572
   0.99970322  0.56436088  0.37261487
   0.00025486  0.43765503  0.12211253
   0.44426016  0.09768305  0.74352690
   0.39752100  0.58331052  0.80490181
   0.24925862  0.08173717  0.51593343
   0.34698630  0.07515693  0.87283516
   0.19991289  0.57687396  0.58464259
   0.29823720  0.57929424  0.94637222
   0.15066811  0.07713991  0.65805347
   0.10223191  0.58036635  0.72785246
   0.05439326  0.07409478  0.79528091
   0.55485115  0.91267773  0.98603123
   0.60891533  0.41353054  0.55290110
   0.75143595  0.91729565  0.76645456
   0.65303950  0.91815612  0.62285366
   0.79971316  0.41969021  0.83602106
   0.70216201  0.42235343  0.69680957
   0.84896854  0.92266668  0.90955525
   0.89790968  0.41948763  0.97894482
   0.94565083  0.92391909  0.54682228
   0.44522225  0.91272517  0.98548275
   0.39118921  0.41373963  0.55236581
   0.24859885  0.91766314  0.76550888
   0.34703237  0.91851066  0.62222786
   0.20042979  0.42003780  0.83515481
   0.29790569  0.42275244  0.69603821
   0.15111043  0.92344628  0.90846396
   0.10212555  0.41984437  0.97799940
   0.05452501  0.92365873  0.54526347
   0.55580508  0.09728117  0.74401342
   0.60252134  0.58304585  0.80540836
   0.75079198  0.08138667  0.51673618
   0.65303795  0.07466767  0.87348387
   0.80008825  0.57643751  0.58553713
   0.70184670  0.57874748  0.94709800
   0.84929826  0.07634232  0.65910178
   0.89796152  0.57944498  0.72886448
   0.94543894  0.07523903  0.79678618
   0.50001209  0.59477139  0.68942989
   0.50003486  0.42075369  0.92172499
   0.99969759  0.56666558  0.87233514
   0.00025928  0.43676997  0.62230754
Direct configuration=     2
   0.49996580  0.70510108  0.52080225
   0.44454765  0.07150602  0.23141112
   0.39787567  0.56852593  0.30499845
   0.24949742  0.08046107  0.01523992
   0.34537461  0.07260450  0.37192897
   0.20023590  0.57640657  0.08405263
   0.29648664  0.58077984  0.44548746
   0.15082917  0.07662909  0.15781859
   0.10235981  0.57944442  0.22748346
   0.05440983  0.07363921  0.29520937
   0.55832349  0.92977903  0.47983543
   0.60388912  0.41413718  0.05288364
   0.75192047  0.91820194  0.26588744
   0.65284943  0.91731350  0.12266996
   0.79996476  0.41930519  0.33549020
   0.70225347  0.42179420  0.19606162
   0.84891267  0.92331960  0.40948196
   0.89819120  0.42037241  0.47873724
   0.94557725  0.92330443  0.04698198
   0.44170536  0.92994103  0.47916677
   0.39622228  0.41437084  0.05241375
   0.24813084  0.91855413  0.26495096
   0.34722396  0.91755999  0.12204694
   0.20019017  0.41965387  0.33463445
   0.29782474  0.42214033  0.19531081
   0.15117464  0.92407959  0.40839374
   0.10186038  0.42076455  0.47773801
   0.05459095  0.92290374  0.04545632
   0.55549431  0.07105850  0.23201928
   0.60223026  0.56853429  0.30551318
   0.75056155  0.08007767  0.01604773
   0.65465697  0.07211670  0.37251008
   0.79975978  0.57594005  0.08496244
   0.70362003  0.58026018  0.44621327
   0.84914467  0.07587271  0.15886534
   0.89784126  0.57852407  0.22847987
   0.94543965  0.07470120  0.29671865
   0.49998325  0.55725319  0.16210107
   0.50006409  0.42215257  0.40303280
   0.99969674  0.56401443  0.37270927
   0.00026224  0.43791905  0.12221381
   0.44424966  0.09774340  0.74367073
   0.39755611  0.58317415  0.80485547
   0.24926180  0.08132084  0.51591676
   0.34697140  0.07498161  0.87286311
   0.19992987  0.57660214  0.58468569
   0.29823690  0.57904389  0.94636725
   0.15066413  0.07692663  0.65801542
   0.10223810  0.58020407  0.72781967
   0.05438066  0.07412936  0.79526656
   0.55484100  0.91276512  0.98605606
   0.60906893  0.41379965  0.55287741
   0.75144288  0.91765400  0.76643091
   0.65304121  0.91819891  0.62283698
   0.79969341  0.41995609  0.83600551
   0.70217063  0.42266947  0.69680544
   0.84897326  0.92289890  0.90952658
   0.89789536  0.41958099  0.97893292
   0.94565780  0.92391699  0.54678472
   0.44523195  0.91280833  0.98550789
   0.39103475  0.41400857  0.55233805
   0.24859343  0.91802482  0.76548963
   0.34703040  0.91854951  0.62220962
   0.20045153  0.42030323  0.83514452
   0.29789809  0.42306904  0.69603123
   0.15110518  0.92368153  0.90844463
   0.10214308  0.41994414  0.97799120
   0.05452120  0.92365294  0.54523306
   0.55581614  0.09734243  0.74415639
   0.60248635  0.58290678  0.80536263
   0.75078873  0.08096750  0.51671949
   0.65305149  0.07448867  0.87351197
   0.80006965  0.57616694  0.58558141
   0.70184709  0.57849448  0.94709234
   0.84930178  0.07612441  0.65906254
   0.89795695  0.57927897  0.72883795
   0.94544474  0.07526754  0.79676540
   0.50001173  0.59467169  0.68912549
   0.50003415  0.42092420  0.92188338
   0.99968903  0.56626940  0.87239422
   0.00026592  0.43710177  0.62243156
Direct configuration=     3
   0.49996735  0.70637573  0.52055746
   0.44454497  0.07153275  0.23140156
   0.39788984  0.56837011  0.30496952
   0.24949697  0.08019653  0.01523336
   0.34537844  0.07233461  0.37203745
   0.20023785  0.57617351  0.08405378
   0.29646224  0.58056775  0.44548572
   0.15082231  0.07649013  0.15779264
   0.10237514  0.57933986  0.22748391
   0.05440785  0.07365281  0.29519669
   0.55812066  0.92920679  0.47999696
   0.60389373  0.41420099  0.05289646
   0.75192446  0.91848091  0.26591234
   0.65284971  0.91746170  0.12266332
   0.79995677  0.41949250  0.33548148
   0.70228227  0.42202996  0.19604935
   0.84891541  0.92349052  0.40944713
   0.89817320  0.42043901  0.47872825
   0.94557821  0.92331790  0.04696072
   0.44190690  0.92936879  0.47933012
   0.39621856  0.41443622  0.05242423
   0.24812766  0.91883532  0.26497663
   0.34722312  0.91770740  0.12204111
   0.20019984  0.41983922  0.33462903
   0.29779677  0.42237502  0.19529748
   0.15117098  0.92425509  0.40836467
   0.10188000  0.42083327  0.47773340
   0.05459245  0.92291708  0.04544103
   0.55549632  0.07108532  0.23200874
   0.60221708  0.56837842  0.30548588
   0.75056286  0.07981052  0.01603907
   0.65465341  0.07184318  0.37262087
   0.79975647  0.57570734  0.08496373
   0.70364435  0.58004698  0.44621111
   0.84915092  0.07573072  0.15883734
   0.89782659  0.57841417  0.22848342
   0.94543708  0.07471229  0.29669926
   0.49998171  0.55717590  0.16198893
   0.50006397  0.42233766  0.40303796
   0.99969201  0.56376169  0.37277814
   0.00026762  0.43811165  0.12228769
   0.44424200  0.09778742  0.74377566
   0.39758172  0.58307467  0.80482166
   0.24926413  0.08101713  0.51590460
   0.34696053  0.07485372  0.87288349
   0.19994225  0.57640384  0.58471714
   0.29823668  0.57886126  0.94636362
   0.15066122  0.07677104  0.65798767
   0.10224262  0.58008569  0.72779576
   0.05437147  0.07415459  0.79525609
   0.55483360  0.91282887  0.98607417
   0.60918097  0.41399596  0.55286012
   0.75144794  0.91791541  0.76641365
   0.65304245  0.91823012  0.62282481
   0.79967901  0.42015003  0.83599417
   0.70217692  0.42290002  0.69680242
   0.84897670  0.92306830  0.90950567
   0.89788492  0.41964911  0.97892423
   0.94566288  0.92391546  0.54675731
   0.44523902  0.91286899  0.98552622
   0.39092208  0.41420475  0.55231780
   0.24858947  0.91828866  0.76547559
   0.34702897  0.91857784  0.62219631
   0.20046739  0.42049686  0.83513701
   0.29789254  0.42329999  0.69602613
   0.15110136  0.92385314  0.90843053
   0.10215587  0.42001692  0.97798521
   0.05451843  0.92364873  0.54521088
   0.55582421  0.09738712  0.74426069
   0.60246083  0.58280533  0.80532927
   0.75078636  0.08066172  0.51670731
   0.65306136  0.07435809  0.87353247
   0.80005608  0.57596956  0.58561370
   0.70184737  0.57830992  0.94708822
   0.84930436  0.07596545  0.65903392
   0.89795361  0.57915787  0.72881859
   0.94544897  0.07528833  0.79675023
   0.50001148  0.59459897  0.68890343
   0.50003364  0.42104858  0.92199892
   0.99968278  0.56598039  0.87243732
   0.00027077  0.43734382  0.62252203
Direct configuration=     4
   0.49996838  0.70659038  0.52044596
   0.44455697  0.07150428  0.23143192
   0.39792247  0.56818118  0.30495148
   0.24949943  0.07976700  0.01523183
   0.34542039  0.07174270  0.37219438
   0.20023979  0.57581166  0.08404598
   0.29640419  0.58023879  0.44546764
   0.15081131  0.07627417  0.15775264
   0.10240107  0.57915755  0.22749457
   0.05440098  0.07361477  0.29516581
   0.55819396  0.92969355  0.48004111
   0.60389795  0.41437479  0.05289818
   0.75193291  0.91893819  0.26593370
   0.65284588  0.91770444  0.12271669
   0.79995258  0.41979626  0.33547438
   0.70232572  0.42236477  0.19602028
   0.84891964  0.92373998  0.40939019
   0.89814090  0.42056708  0.47872282
   0.94558080  0.92339129  0.04691553
   0.44183382  0.92984844  0.47937430
   0.39621558  0.41461146  0.05242107
   0.24812030  0.91929453  0.26499892
   0.34722623  0.91794827  0.12209475
   0.20020707  0.42014237  0.33462799
   0.29775471  0.42270885  0.19526654
   0.15116573  0.92451251  0.40831821
   0.10191447  0.42096879  0.47773639
   0.05459524  0.92298966  0.04540701
   0.55548323  0.07105586  0.23203854
   0.60218669  0.56818990  0.30546917
   0.75056112  0.07937691  0.01603461
   0.65461236  0.07124584  0.37278041
   0.79975260  0.57534440  0.08495593
   0.70370224  0.57971548  0.44619300
   0.84916068  0.07550510  0.15879282
   0.89780093  0.57821914  0.22849918
   0.94543486  0.07467378  0.29665584
   0.49997884  0.55699507  0.16190837
   0.50006390  0.42232357  0.40290261
   0.99968218  0.56337284  0.37291540
   0.00027882  0.43839473  0.12242910
   0.44423855  0.09784696  0.74389700
   0.39762499  0.58293672  0.80474835
   0.24926957  0.08053137  0.51589358
   0.34694403  0.07460506  0.87289113
   0.19995935  0.57607209  0.58476340
   0.29823934  0.57858219  0.94635717
   0.15065571  0.07653167  0.65794919
   0.10224900  0.57987404  0.72777413
   0.05435798  0.07413465  0.79522382
   0.55483339  0.91295007  0.98614088
   0.60934664  0.41432115  0.55281872
   0.75145937  0.91833017  0.76638047
   0.65304757  0.91812597  0.62285231
   0.79965900  0.42046687  0.83597824
   0.70218347  0.42330637  0.69680242
   0.84898244  0.92332073  0.90946860
   0.89786908  0.41978007  0.97891420
   0.94567101  0.92398070  0.54670297
   0.44523883  0.91298328  0.98559250
   0.39075478  0.41452591  0.55227198
   0.24857966  0.91870598  0.76544673
   0.34702360  0.91847120  0.62222304
   0.20049046  0.42081506  0.83512767
   0.29788700  0.42370744  0.69602487
   0.15109588  0.92411128  0.90840337
   0.10217547  0.42016009  0.97797973
   0.05451536  0.92370673  0.54516893
   0.55582781  0.09744627  0.74438078
   0.60241710  0.58266367  0.80525828
   0.75078042  0.08017371  0.51669403
   0.65307653  0.07410399  0.87354193
   0.80003712  0.57563679  0.58565857
   0.70184525  0.57802621  0.94708295
   0.84930934  0.07571651  0.65899001
   0.89794932  0.57893647  0.72880335
   0.94545324  0.07526610  0.79670930
   0.50001104  0.59434062  0.68873118
   0.50003276  0.42131072  0.92201254
   0.99967002  0.56552831  0.87253348
   0.00028065  0.43770751  0.62268497
Direct configuration=     5
   0.49997036  0.70700416  0.52023102
   0.44458012  0.07144940  0.23149045
   0.39798537  0.56781699  0.30491672
   0.24950417  0.07893899  0.01522888
   0.34550126  0.07060164  0.37249689
   0.20024353  0.57511411  0.08403095
   0.29629229  0.57960465  0.44543278
   0.15079009  0.07585787  0.15767553
   0.10245106  0.57880611  0.22751514
   0.05438773  0.07354142  0.29510629
   0.55833527  0.93063189  0.48012621
   0.60390608  0.41470982  0.05290150
   0.75194920  0.91981970  0.26597487
   0.65283849  0.91817239  0.12281956
   0.79994451  0.42038181  0.33546070
   0.70240947  0.42301018  0.19596425
   0.84892780  0.92422088  0.40928043
   0.89807864  0.42081396  0.47871234
   0.94558580  0.92353275  0.04682841
   0.44169294  0.93077307  0.47945947
   0.39620984  0.41494926  0.05241496
   0.24810612  0.92017978  0.26504188
   0.34723222  0.91841261  0.12219814
   0.20022101  0.42072677  0.33462596
   0.29767362  0.42335238  0.19520689
   0.15115560  0.92500876  0.40822865
   0.10198092  0.42123004  0.47774214
   0.05460061  0.92312956  0.04534142
   0.55545799  0.07099906  0.23209600
   0.60212812  0.56782649  0.30543697
   0.75055775  0.07854100  0.01602602
   0.65453324  0.07009432  0.37308796
   0.79974512  0.57464475  0.08494090
   0.70381384  0.57907641  0.44615808
   0.84917950  0.07507017  0.15870700
   0.89775146  0.57784316  0.22852956
   0.94543058  0.07459953  0.29657215
   0.49997332  0.55664647  0.16175307
   0.50006375  0.42229639  0.40264167
   0.99966323  0.56262325  0.37318000
   0.00030040  0.43894044  0.12270171
   0.44423188  0.09796175  0.74413091
   0.39770838  0.58267080  0.80460703
   0.24928006  0.07959496  0.51587232
   0.34691220  0.07412571  0.87290585
   0.19999230  0.57543256  0.58485257
   0.29824447  0.57804421  0.94634473
   0.15064509  0.07607023  0.65787502
   0.10226131  0.57946604  0.72773244
   0.05433197  0.07409620  0.79516161
   0.55483298  0.91318370  0.98626947
   0.60966601  0.41494804  0.55273891
   0.75148139  0.91912971  0.76631650
   0.65305745  0.91792520  0.62290532
   0.79962043  0.42107764  0.83594753
   0.70219611  0.42408972  0.69680242
   0.84899351  0.92380735  0.90939714
   0.89783856  0.42003252  0.97889485
   0.94568670  0.92410645  0.54659822
   0.44523845  0.91320362  0.98572026
   0.39043225  0.41514501  0.55218364
   0.24856074  0.91951047  0.76539110
   0.34701325  0.91826563  0.62227456
   0.20053491  0.42142847  0.83510967
   0.29787630  0.42449289  0.69602244
   0.15108533  0.92460890  0.90835101
   0.10221326  0.42043609  0.97796917
   0.05450944  0.92381855  0.54508806
   0.55583474  0.09756030  0.74461230
   0.60233279  0.58239058  0.80512144
   0.75076895  0.07923296  0.51666842
   0.65310576  0.07361417  0.87356015
   0.80000058  0.57499530  0.58574508
   0.70184117  0.57747929  0.94707278
   0.84931895  0.07523662  0.65890535
   0.89794104  0.57850966  0.72877397
   0.94546146  0.07522325  0.79663040
   0.50001020  0.59384259  0.68839912
   0.50003106  0.42181606  0.92203880
   0.99964544  0.56465682  0.87271885
   0.00029970  0.43840860  0.62299908
Direct configuration=     6
   0.49997092  0.70711942  0.52017115
   0.44458656  0.07143412  0.23150675
   0.39800290  0.56771554  0.30490704
   0.24950549  0.07870834  0.01522806
   0.34552378  0.07028378  0.37258116
   0.20024457  0.57491980  0.08402676
   0.29626112  0.57942800  0.44542307
   0.15078418  0.07574190  0.15765405
   0.10246499  0.57870821  0.22752087
   0.05438404  0.07352099  0.29508971
   0.55837463  0.93089329  0.48014992
   0.60390834  0.41480315  0.05290243
   0.75195373  0.92006525  0.26598634
   0.65283643  0.91830275  0.12284822
   0.79994226  0.42054493  0.33545688
   0.70243280  0.42318997  0.19594864
   0.84893007  0.92435484  0.40924985
   0.89806129  0.42088273  0.47870942
   0.94558719  0.92357215  0.04680414
   0.44165369  0.93103065  0.47948319
   0.39620825  0.41504336  0.05241326
   0.24810217  0.92042638  0.26505385
   0.34723390  0.91854195  0.12222694
   0.20022490  0.42088956  0.33462540
   0.29765103  0.42353165  0.19519027
   0.15115278  0.92514700  0.40820370
   0.10199943  0.42130282  0.47774374
   0.05460210  0.92316853  0.04532315
   0.55545096  0.07098324  0.23211200
   0.60211181  0.56772525  0.30542800
   0.75055682  0.07830815  0.01602362
   0.65451120  0.06977355  0.37317363
   0.79974304  0.57444985  0.08493671
   0.70384493  0.57889839  0.44614835
   0.84918474  0.07494902  0.15868310
   0.89773768  0.57773842  0.22853803
   0.94542938  0.07457885  0.29654883
   0.49997178  0.55654936  0.16170981
   0.50006371  0.42228882  0.40256899
   0.99965795  0.56241443  0.37325371
   0.00030641  0.43909246  0.12277765
   0.44423003  0.09799373  0.74419607
   0.39773161  0.58259672  0.80456766
   0.24928298  0.07933410  0.51586640
   0.34690334  0.07399218  0.87290994
   0.20000149  0.57525441  0.58487741
   0.29824590  0.57789434  0.94634126
   0.15064213  0.07594169  0.65785436
   0.10226474  0.57935239  0.72772082
   0.05432473  0.07408549  0.79514428
   0.55483286  0.91324878  0.98630530
   0.60975498  0.41512266  0.55271668
   0.75148753  0.91935243  0.76629868
   0.65306020  0.91786927  0.62292009
   0.79960968  0.42124778  0.83593898
   0.70219964  0.42430794  0.69680242
   0.84899660  0.92394291  0.90937724
   0.89783006  0.42010285  0.97888946
   0.94569107  0.92414148  0.54656904
   0.44523835  0.91326500  0.98575586
   0.39034241  0.41531747  0.55215903
   0.24855547  0.91973457  0.76537560
   0.34701036  0.91820837  0.62228892
   0.20054730  0.42159934  0.83510466
   0.29787332  0.42471169  0.69602176
   0.15108239  0.92474752  0.90833643
   0.10222378  0.42051297  0.97796623
   0.05450779  0.92384970  0.54506553
   0.55583668  0.09759207  0.74467679
   0.60230930  0.58231451  0.80508332
   0.75076575  0.07897090  0.51666129
   0.65311390  0.07347772  0.87356523
   0.79999040  0.57481660  0.58576917
   0.70184003  0.57732694  0.94706995
   0.84932163  0.07510294  0.65888177
   0.89793874  0.57839076  0.72876578
   0.94546376  0.07521131  0.79660842
   0.50000997  0.59370385  0.68830662
   0.50003058  0.42195683  0.92204612
   0.99963859  0.56441405  0.87277048
   0.00030501  0.43860390  0.62308658
Direct configuration=     7
   0.49997185  0.70687154  0.52000346
   0.44459241  0.07127133  0.23151152
   0.39802206  0.56749309  0.30481821
   0.24952780  0.07846536  0.01527086
   0.34550538  0.06977868  0.37255813
   0.20023859  0.57478688  0.08400354
   0.29615629  0.57919611  0.44536588
   0.15077977  0.07562229  0.15763751
   0.10247580  0.57858939  0.22755698
   0.05436940  0.07325326  0.29503879
   0.55829022  0.93124572  0.48021167
   0.60391465  0.41502132  0.05283127
   0.75196668  0.92030402  0.26594716
   0.65284698  0.91844074  0.12289672
   0.79997533  0.42070883  0.33546340
   0.70242371  0.42325782  0.19593116
   0.84893250  0.92442333  0.40922288
   0.89804634  0.42099544  0.47874062
   0.94559709  0.92381627  0.04673046
   0.44174035  0.93136772  0.47954581
   0.39620262  0.41525976  0.05233975
   0.24808816  0.92066887  0.26501650
   0.34722297  0.91867913  0.12227327
   0.20019351  0.42106900  0.33463900
   0.29765909  0.42360613  0.19516969
   0.15115049  0.92523478  0.40818587
   0.10201409  0.42144590  0.47778210
   0.05460483  0.92340146  0.04526588
   0.55544514  0.07081384  0.23211947
   0.60209519  0.56749968  0.30533914
   0.75053175  0.07806859  0.01606187
   0.65453056  0.06927588  0.37314624
   0.79974683  0.57431312  0.08490834
   0.70394866  0.57866524  0.44609266
   0.84918541  0.07480797  0.15865612
   0.89772636  0.57759514  0.22857596
   0.94543395  0.07433374  0.29648152
   0.49996899  0.55638504  0.16173086
   0.50006394  0.42338874  0.40269189
   0.99964334  0.56221787  0.37343152
   0.00032619  0.43918261  0.12295467
   0.44423956  0.09796392  0.74425411
   0.39775842  0.58248878  0.80455142
   0.24929715  0.07915354  0.51588201
   0.34690059  0.07372640  0.87289501
   0.19999798  0.57501358  0.58489160
   0.29826902  0.57784378  0.94634837
   0.15063321  0.07580641  0.65784581
   0.10226477  0.57919248  0.72776675
   0.05431972  0.07382570  0.79508073
   0.55485712  0.91356182  0.98643566
   0.60984032  0.41534417  0.55269703
   0.75151691  0.91953777  0.76630021
   0.65310673  0.91790114  0.62302243
   0.79961990  0.42142337  0.83594183
   0.70219884  0.42448380  0.69681762
   0.84900161  0.92401844  0.90933602
   0.89782717  0.42022893  0.97888804
   0.94569308  0.92442557  0.54650706
   0.44521551  0.91357078  0.98588555
   0.39025701  0.41553970  0.55213719
   0.24852564  0.91992384  0.76537743
   0.34696373  0.91823706  0.62238973
   0.20054088  0.42179276  0.83511387
   0.29787217  0.42489542  0.69603869
   0.15107925  0.92484523  0.90830314
   0.10222742  0.42067634  0.97797182
   0.05451775  0.92411293  0.54502131
   0.55582739  0.09756236  0.74473579
   0.60228062  0.58220411  0.80507367
   0.75074873  0.07879216  0.51667004
   0.65311526  0.07320560  0.87355284
   0.79999179  0.57457527  0.58577553
   0.70181767  0.57727326  0.94707942
   0.84932879  0.07494705  0.65885956
   0.89794044  0.57819705  0.72881213
   0.94545846  0.07497821  0.79653138
   0.50001178  0.59343904  0.68811613
   0.50002990  0.42219050  0.92173052
   0.99961902  0.56415567  0.87295240
   0.00032241  0.43875545  0.62325380
Direct configuration=     8
   0.49997217  0.70678633  0.51994581
   0.44459442  0.07121536  0.23151316
   0.39802865  0.56741662  0.30478768
   0.24953548  0.07838182  0.01528558
   0.34549905  0.06960503  0.37255021
   0.20023653  0.57474118  0.08399556
   0.29612025  0.57911639  0.44534622
   0.15077826  0.07558117  0.15763182
   0.10247951  0.57854854  0.22756940
   0.05436437  0.07316122  0.29502129
   0.55826120  0.93136688  0.48023290
   0.60391682  0.41509632  0.05280681
   0.75197113  0.92038611  0.26593369
   0.65285061  0.91848818  0.12291339
   0.79998670  0.42076517  0.33546564
   0.70242058  0.42328114  0.19592514
   0.84893333  0.92444687  0.40921361
   0.89804120  0.42103418  0.47875135
   0.94560050  0.92390020  0.04670513
   0.44177015  0.93148359  0.47956733
   0.39620068  0.41533416  0.05231447
   0.24808334  0.92075224  0.26500366
   0.34721922  0.91872629  0.12228920
   0.20018272  0.42113068  0.33464367
   0.29766186  0.42363173  0.19516261
   0.15114971  0.92526496  0.40817974
   0.10201913  0.42149508  0.47779528
   0.05460576  0.92348154  0.04524620
   0.55544314  0.07075560  0.23212204
   0.60208947  0.56742214  0.30530859
   0.75052313  0.07798623  0.01607502
   0.65453722  0.06910478  0.37313683
   0.79974813  0.57426611  0.08489858
   0.70398432  0.57858508  0.44607352
   0.84918564  0.07475948  0.15864684
   0.89772247  0.57754588  0.22858900
   0.94543552  0.07424947  0.29645838
   0.49996804  0.55632854  0.16173810
   0.50006402  0.42376688  0.40273414
   0.99963832  0.56215030  0.37349265
   0.00033299  0.43921360  0.12301552
   0.44424284  0.09795367  0.74427406
   0.39776764  0.58245167  0.80454584
   0.24930203  0.07909146  0.51588737
   0.34689964  0.07363502  0.87288988
   0.19999678  0.57493079  0.58489648
   0.29827697  0.57782640  0.94635082
   0.15063015  0.07575990  0.65784287
   0.10226478  0.57913750  0.72778254
   0.05431800  0.07373639  0.79505888
   0.55486545  0.91366944  0.98648048
   0.60986965  0.41542032  0.55269027
   0.75152702  0.91960148  0.76630073
   0.65312272  0.91791210  0.62305761
   0.79962341  0.42148373  0.83594282
   0.70219857  0.42454427  0.69682284
   0.84900334  0.92404441  0.90932186
   0.89782618  0.42027228  0.97888755
   0.94569378  0.92452324  0.54648575
   0.44520766  0.91367591  0.98593014
   0.39022765  0.41561610  0.55212969
   0.24851539  0.91998890  0.76537805
   0.34694770  0.91824692  0.62242438
   0.20053867  0.42185926  0.83511703
   0.29787177  0.42495858  0.69604450
   0.15107817  0.92487883  0.90829169
   0.10222867  0.42073250  0.97797375
   0.05452118  0.92420343  0.54500612
   0.55582420  0.09755214  0.74475607
   0.60227076  0.58216615  0.80507035
   0.75074287  0.07873071  0.51667305
   0.65311573  0.07311205  0.87354858
   0.79999227  0.57449231  0.58577772
   0.70180999  0.57725481  0.94708268
   0.84933125  0.07489345  0.65885192
   0.89794102  0.57813045  0.72882806
   0.94545663  0.07489807  0.79650490
   0.50001241  0.59334800  0.68805065
   0.50002967  0.42227084  0.92162202
   0.99961230  0.56406684  0.87301495
   0.00032839  0.43880756  0.62331129
Direct configuration=     9
   0.49997453  0.70730264  0.52010033
   0.44458254  0.07104139  0.23157248
   0.39805619  0.56725951  0.30469511
   0.24956480  0.07836947  0.01531292
   0.34546764  0.06917747  0.37249157
   0.20023215  0.57474580  0.08398932
   0.29601376  0.57900476  0.44528491
   0.15077421  0.07554354  0.15762954
   0.10247472  0.57852020  0.22760103
   0.05435248  0.07279198  0.29497537
   0.55822646  0.93195278  0.48032170
   0.60391577  0.41521338  0.05272751
   0.75199010  0.92043559  0.26587925
   0.65285831  0.91853945  0.12293911
   0.80004489  0.42075459  0.33545460
   0.70238875  0.42320658  0.19591903
   0.84893407  0.92441509  0.40921107
   0.89804463  0.42109093  0.47879135
   0.94561597  0.92421639  0.04662878
   0.44180594  0.93205787  0.47965378
   0.39620170  0.41544890  0.05223374
   0.24806454  0.92081121  0.26495073
   0.34721178  0.91878131  0.12231287
   0.20012713  0.42114088  0.33464011
   0.29769334  0.42356298  0.19515573
   0.15115091  0.92526216  0.40818776
   0.10201230  0.42159900  0.47784418
   0.05460691  0.92376622  0.04518922
   0.55545357  0.07057425  0.23218461
   0.60206402  0.56726665  0.30521294
   0.75049146  0.07797347  0.01609585
   0.65456937  0.06868243  0.37307423
   0.79974994  0.57425830  0.08488526
   0.70409133  0.57847600  0.44601222
   0.84918547  0.07468590  0.15863075
   0.89772637  0.57747613  0.22862135
   0.94543453  0.07393066  0.29639076
   0.49996448  0.55625823  0.16169620
   0.50006403  0.42378826  0.40242061
   0.99961861  0.56205395  0.37369273
   0.00035902  0.43921621  0.12321399
   0.44425148  0.09781538  0.74423706
   0.39779511  0.58240674  0.80453652
   0.24930718  0.07914782  0.51589084
   0.34689965  0.07346179  0.87291093
   0.19997662  0.57479941  0.58491426
   0.29830040  0.57788843  0.94635750
   0.15061820  0.07569784  0.65785530
   0.10226065  0.57906599  0.72784544
   0.05431292  0.07336174  0.79500818
   0.55488761  0.91410809  0.98658387
   0.60990451  0.41554262  0.55264384
   0.75156497  0.91962081  0.76632838
   0.65316394  0.91795213  0.62311498
   0.79964949  0.42147959  0.83596827
   0.70219840  0.42454462  0.69685819
   0.84901073  0.92403649  0.90928885
   0.89783334  0.42033107  0.97889045
   0.94569731  0.92487813  0.54642734
   0.44518627  0.91411012  0.98603327
   0.39019285  0.41574050  0.55208088
   0.24847811  0.92001488  0.76540415
   0.34690718  0.91828666  0.62247994
   0.20051775  0.42187662  0.83515029
   0.29787030  0.42496786  0.69608019
   0.15107445  0.92490720  0.90826887
   0.10221812  0.42084896  0.97798654
   0.05453336  0.92452063  0.54496729
   0.55581452  0.09741428  0.74471978
   0.60224026  0.58211837  0.80506955
   0.75073569  0.07878554  0.51666701
   0.65311493  0.07293166  0.87357287
   0.80000926  0.57435141  0.58578662
   0.70178866  0.57731352  0.94709009
   0.84934080  0.07479316  0.65884762
   0.89794766  0.57800749  0.72888736
   0.94544821  0.07458025  0.79643460
   0.50001392  0.59295787  0.68796039
   0.50002813  0.42255524  0.92129314
   0.99958604  0.56389848  0.87323681
   0.00035129  0.43885908  0.62348991
Direct configuration=    10
   0.49997560  0.70753760  0.52017065
   0.44457713  0.07096222  0.23159948
   0.39806873  0.56718801  0.30465299
   0.24957814  0.07836386  0.01532537
   0.34545335  0.06898290  0.37246488
   0.20023015  0.57474790  0.08398648
   0.29596531  0.57895395  0.44525701
   0.15077236  0.07552642  0.15762851
   0.10247254  0.57850731  0.22761543
   0.05434708  0.07262396  0.29495447
   0.55821065  0.93221941  0.48036211
   0.60391529  0.41526665  0.05269142
   0.75199873  0.92045811  0.26585447
   0.65286181  0.91856279  0.12295082
   0.80007136  0.42074977  0.33544958
   0.70237426  0.42317265  0.19591625
   0.84893440  0.92440063  0.40920992
   0.89804619  0.42111676  0.47880955
   0.94562302  0.92436027  0.04659404
   0.44182223  0.93231921  0.47969312
   0.39620216  0.41550112  0.05219700
   0.24805598  0.92083805  0.26492664
   0.34720840  0.91880634  0.12232364
   0.20010184  0.42114551  0.33463849
   0.29770766  0.42353169  0.19515261
   0.15115146  0.92526089  0.40819142
   0.10200919  0.42164629  0.47786642
   0.05460743  0.92389577  0.04516329
   0.55545832  0.07049173  0.23221308
   0.60205243  0.56719590  0.30516942
   0.75047705  0.07796767  0.01610533
   0.65458400  0.06849023  0.37304574
   0.79975077  0.57425474  0.08487920
   0.70414003  0.57842636  0.44598433
   0.84918539  0.07465241  0.15862342
   0.89772814  0.57744438  0.22863607
   0.94543409  0.07378558  0.29635999
   0.49996286  0.55622623  0.16167713
   0.50006403  0.42379799  0.40227793
   0.99960964  0.56201010  0.37378378
   0.00037087  0.43921740  0.12330431
   0.44425541  0.09775244  0.74422022
   0.39780761  0.58238630  0.80453227
   0.24930953  0.07917346  0.51589242
   0.34689966  0.07338295  0.87292052
   0.19996745  0.57473963  0.58492235
   0.29831107  0.57791666  0.94636055
   0.15061276  0.07566960  0.65786095