 running on   20 total cores
 distrk:  each k-point on   20 cores,    1 groups
 distr:  one band on    1 cores,   20 groups
 using from now: INCAR     
 vasp.6.1.1 19Jun20 (build Jan 13 2022 18:23:11) complex                        
  
 POSCAR found type information on POSCAR O Ti
 POSCAR found :  2 types and      81 ions
 scaLAPACK will be used
 -----------------------------------------------------------------------------
|                                                                             |
|           W    W    AA    RRRRR   N    N  II  N    N   GGGG   !!!           |
|           W    W   A  A   R    R  NN   N  II  NN   N  G    G  !!!           |
|           W    W  A    A  R    R  N N  N  II  N N  N  G       !!!           |
|           W WW W  AAAAAA  RRRRR   N  N N  II  N  N N  G  GGG   !            |
|           WW  WW  A    A  R   R   N   NN  II  N   NN  G    G                |
|           W    W  A    A  R    R  N    N  II  N    N   GGGG   !!!           |
|                                                                             |
|     For optimal performance we recommend to set                             |
|       NCORE = 4 - approx SQRT(number of cores).                             |
|     NCORE specifies how many cores store one orbital (NPAR=cpu/NCORE).      |
|     This setting can greatly improve the performance of VASP for DFT.       |
|     The default, NCORE=1 might be grossly inefficient on modern             |
|     multi-core architectures or massively parallel machines. Do your        |
|     own testing!!!!                                                         |
|     Unfortunately you need to use the default for GW and RPA                |
|     calculations (for HF NCORE is supported but not extensively tested      |
|     yet).                                                                   |
|                                                                             |
 -----------------------------------------------------------------------------

 -----------------------------------------------------------------------------
|                                                                             |
|               ----> ADVICE to this user running VASP <----                  |
|                                                                             |
|     You have a (more or less) 'large supercell' and for larger cells it     |
|     might be more efficient to use real-space projection operators.         |
|     Therefore, try LREAL= Auto in the INCAR file.                           |
|     Mind: For very accurate calculation, you might also keep the            |
|     reciprocal projection scheme (i.e. LREAL=.FALSE.).                      |
|                                                                             |
 -----------------------------------------------------------------------------

 LDA part: xc-table for Pade appr. of Perdew
 POSCAR, INCAR and KPOINTS ok, starting setup
 FFT: planning ...
 WAVECAR not read
 WARNING: random wavefunctions but no delay for mixing, default for NELMDL
 entering main loop
       N       E                     dE             d eps       ncg     rms          rms(c)
DAV:   1     0.137018653017E+05    0.13702E+05   -0.40692E+05  7060   0.180E+03
DAV:   2     0.146717363639E+04   -0.12235E+05   -0.11996E+05  6960   0.613E+02
DAV:   3    -0.311612853286E+03   -0.17788E+04   -0.16882E+04 10320   0.206E+02
DAV:   4    -0.676489368237E+03   -0.36488E+03   -0.35711E+03 10400   0.723E+01
DAV:   5    -0.711981045901E+03   -0.35492E+02   -0.35174E+02 10980   0.209E+01    0.777E+01
DAV:   6    -0.635010402403E+03    0.76971E+02   -0.34339E+02  9300   0.438E+01    0.266E+01
DAV:   7    -0.123092438236E+04   -0.59591E+03   -0.23231E+03 10620   0.933E+01    0.124E+02
DAV:   8    -0.641134313858E+03    0.58979E+03   -0.10530E+03 10600   0.398E+01    0.616E+01
DAV:   9    -0.622139297851E+03    0.18995E+02   -0.67201E+02 10340   0.261E+01    0.218E+01
DAV:  10    -0.629086995468E+03   -0.69477E+01   -0.14615E+02  9840   0.158E+01    0.146E+01
DAV:  11    -0.633095395721E+03   -0.40084E+01   -0.24423E+01 10280   0.144E+01    0.168E+01
DAV:  12    -0.630605907899E+03    0.24895E+01   -0.19749E+01 10740   0.109E+01    0.124E+01
DAV:  13    -0.631514446665E+03   -0.90854E+00   -0.11384E+01  9880   0.116E+01    0.121E+01
DAV:  14    -0.631029696357E+03    0.48475E+00   -0.14356E+01  9840   0.114E+01    0.851E+00
DAV:  15    -0.630098784077E+03    0.93091E+00   -0.83657E+00  9260   0.795E+00    0.367E+00
DAV:  16    -0.629991008692E+03    0.10778E+00   -0.23263E+00 10020   0.464E+00    0.256E+00
DAV:  17    -0.629927146232E+03    0.63862E-01   -0.76549E-01  9520   0.307E+00    0.145E+00
DAV:  18    -0.629926701082E+03    0.44515E-03   -0.29284E-01  9320   0.184E+00    0.118E+00
DAV:  19    -0.629922312763E+03    0.43883E-02   -0.14257E-01  9200   0.137E+00    0.840E-01
DAV:  20    -0.629924048860E+03   -0.17361E-02   -0.66248E-02  9580   0.950E-01    0.785E-01
DAV:  21    -0.629914802196E+03    0.92467E-02   -0.43004E-02  9460   0.735E-01    0.311E-01
DAV:  22    -0.629915513502E+03   -0.71131E-03   -0.15193E-02 10280   0.398E-01    0.308E-01
DAV:  23    -0.629914535540E+03    0.97796E-03   -0.62699E-03  9480   0.288E-01    0.163E-01
DAV:  24    -0.629914485317E+03    0.50223E-04   -0.21700E-03 10780   0.159E-01    0.128E-01
DAV:  25    -0.629914355338E+03    0.12998E-03   -0.11576E-03  9700   0.117E-01    0.687E-02
DAV:  26    -0.629914366042E+03   -0.10704E-04   -0.65998E-04  9340   0.889E-02    0.568E-02
DAV:  27    -0.629914337569E+03    0.28473E-04   -0.28860E-04  9200   0.630E-02    0.277E-02
DAV:  28    -0.629914330478E+03    0.70910E-05   -0.98309E-05  7580   0.385E-02
   1 F= -.62991433E+03 E0= -.62985409E+03  d E =-.120473E+00
 writing wavefunctions
